ITEM: TIMESTEP
0
ITEM: NUMBER OF ATOMS
7128
ITEM: BOX BOUNDS pp pp pp xy xz yz
-110.798 110.798 -73.8655
-0.710876 127.228 3.06162e-15
0 50 5.30288e-15
ITEM: ATOMS id type x y z
 1 1 0 0 25
 2 1 146.5 0.710771 25
 3 1 -1.23109 2.13231 25
 4 1 145.269 2.84308 25
 5 1 -2.46218 4.26462 25
 6 1 144.038 4.9754 25
 7 1 -3.69327 6.39694 25
 8 1 142.807 7.10771 25
 9 1 -4.92436 8.52925 25
 10 1 140.344 11.3723 25
 11 1 -7.38655 12.7939 25
 12 1 139.113 13.5046 25
 13 1 -8.61764 14.9262 25
 14 1 137.882 15.637 25
 15 1 -9.84873 17.0585 25
 16 1 136.651 17.7693 25
 17 1 -11.0798 19.1908 25
 18 1 135.42 19.9016 25
 19 1 -12.3109 21.3231 25
 20 1 134.189 22.0339 25
 21 1 -13.542 23.4554 25
 22 1 132.958 24.1662 25
 23 1 -14.7731 25.5877 25
 24 1 131.727 26.2985 25
 25 1 -16.0042 27.7201 25
 26 1 130.496 28.4308 25
 27 1 -17.2353 29.8524 25
 28 1 129.265 30.5631 25
 29 1 -18.4664 31.9847 25
 30 1 128.033 32.6955 25
 31 1 -19.6975 34.117 25
 32 1 126.802 34.8278 25
 33 1 -20.9286 36.2493 25
 34 1 125.571 36.9601 25
 35 1 -22.1596 38.3816 25
 36 1 124.34 39.0924 25
 37 1 -23.3907 40.5139 25
 38 1 123.109 41.2247 25
 39 1 -24.6218 42.6462 25
 40 1 121.878 43.357 25
 41 1 -25.8529 44.7786 25
 42 1 120.647 45.4893 25
 43 1 -27.084 46.9109 25
 44 1 119.416 47.6216 25
 45 1 -28.3151 49.0432 25
 46 1 118.185 49.754 25
 47 1 -29.5462 51.1755 25
 48 1 116.954 51.8863 25
 49 1 -30.7773 53.3078 25
 50 1 115.723 54.0186 25
 51 1 -32.0084 55.4401 25
 52 1 114.491 56.1509 25
 53 1 -33.2395 57.5724 25
 54 1 113.26 58.2832 25
 55 1 -34.4706 59.7047 25
 56 1 112.029 60.4155 25
 57 1 -35.7016 61.8371 25
 58 1 110.798 62.5478 25
 59 1 -36.9327 63.9694 25
 60 1 109.567 64.6801 25
 61 1 -38.1638 66.1017 25
 62 1 108.336 66.8125 25
 63 1 -39.3949 68.234 25
 64 1 107.105 68.9448 25
 65 1 -40.626 70.3663 25
 66 1 105.874 71.0771 25
 67 1 -41.8571 72.4986 25
 68 1 104.643 73.2094 25
 69 1 -43.0882 74.6309 25
 70 1 103.412 75.3417 25
 71 1 -44.3193 76.7632 25
 72 1 102.181 77.474 25
 73 1 -45.5504 78.8956 25
 74 1 100.949 79.6063 25
 75 1 -46.7815 81.0279 25
 76 1 99.7184 81.7386 25
 77 1 -48.0126 83.1602 25
 78 1 98.4873 83.871 25
 79 1 -49.2436 85.2925 25
 80 1 97.2562 86.0033 25
 81 1 -50.4747 87.4248 25
 82 1 96.0251 88.1356 25
 83 1 -51.7058 89.5571 25
 84 1 94.794 90.2679 25
 85 1 -52.9369 91.6894 25
 86 1 93.5629 92.4002 25
 87 1 -54.168 93.8217 25
 88 1 92.3318 94.5325 25
 89 1 -55.3991 95.9541 25
 90 1 91.1007 96.6648 25
 91 1 -56.6302 98.0864 25
 92 1 89.8697 98.7971 25
 93 1 -57.8613 100.219 25
 94 1 88.6386 100.929 25
 95 1 -59.0924 102.351 25
 96 1 87.4075 103.062 25
 97 1 -60.3235 104.483 25
 98 1 86.1764 105.194 25
 99 1 -61.5546 106.616 25
 100 1 84.9453 107.326 25
 101 1 -62.7857 108.748 25
 102 1 83.7142 109.459 25
 103 1 -64.0167 110.88 25
 104 1 82.4831 111.591 25
 105 1 -65.2478 113.013 25
 106 1 81.252 113.723 25
 107 1 -66.4789 115.145 25
 108 1 80.0209 115.856 25
 109 1 -67.71 117.277 25
 110 1 78.7898 117.988 25
 111 1 -68.9411 119.409 25
 112 1 77.5587 120.12 25
 113 1 -70.1722 121.542 25
 114 1 76.3277 122.253 25
 115 1 -71.4033 123.674 25
 116 1 75.0966 124.385 25
 117 1 -72.6344 125.806 25
 118 1 73.8655 126.517 25
 119 1 2.46218 0 25
 120 1 1.23109 0.710771 25
 121 1 1.23109 2.13231 25
 122 1 0 2.84308 25
 123 1 1.33227e-15 4.26462 25
 124 1 -1.23109 4.9754 25
 125 1 -1.23109 6.39694 25
 126 1 -2.46218 7.10771 25
 127 1 -2.46218 8.52925 25
 128 1 -3.69327 9.24002 25
 129 1 -3.69327 10.6616 25
 130 1 -4.92436 11.3723 25
 131 1 -4.92436 12.7939 25
 132 1 -6.15546 13.5046 25
 133 1 -6.15546 14.9262 25
 134 1 -7.38655 15.637 25
 135 1 -7.38655 17.0585 25
 136 1 -8.61764 17.7693 25
 137 1 -8.61764 19.1908 25
 138 1 -9.84873 19.9016 25
 139 1 -9.84873 21.3231 25
 140 1 -11.0798 22.0339 25
 141 1 -11.0798 23.4554 25
 142 1 -12.3109 24.1662 25
 143 1 -12.3109 25.5877 25
 144 1 -13.542 26.2985 25
 145 1 -13.542 27.7201 25
 146 1 -14.7731 28.4308 25
 147 1 -14.7731 29.8524 25
 148 1 -16.0042 30.5631 25
 149 1 -16.0042 31.9847 25
 150 1 -17.2353 32.6955 25
 151 1 -17.2353 34.117 25
 152 1 -18.4664 34.8278 25
 153 1 -18.4664 36.2493 25
 154 1 -19.6975 36.9601 25
 155 1 -19.6975 38.3816 25
 156 1 -20.9286 39.0924 25
 157 1 -20.9286 40.5139 25
 158 1 -23.3907 43.357 25
 159 1 -23.3907 44.7786 25
 160 1 -24.6218 45.4893 25
 161 1 -24.6218 46.9109 25
 162 1 -25.8529 47.6216 25
 163 1 -25.8529 49.0432 25
 164 1 -27.084 49.754 25
 165 1 -27.084 51.1755 25
 166 1 -28.3151 51.8863 25
 167 1 -28.3151 53.3078 25
 168 1 -29.5462 54.0186 25
 169 1 -29.5462 55.4401 25
 170 1 -30.7773 56.1509 25
 171 1 -30.7773 57.5724 25
 172 1 -32.0084 58.2832 25
 173 1 -32.0084 59.7047 25
 174 1 -33.2395 60.4155 25
 175 1 -33.2395 61.8371 25
 176 1 -34.4706 62.5478 25
 177 1 -34.4706 63.9694 25
 178 1 -35.7016 64.6801 25
 179 1 -35.7016 66.1017 25
 180 1 -36.9327 66.8125 25
 181 1 -36.9327 68.234 25
 182 1 -38.1638 68.9448 25
 183 1 -38.1638 70.3663 25
 184 1 -39.3949 71.0771 25
 185 1 -39.3949 72.4986 25
 186 1 -40.626 73.2094 25
 187 1 -40.626 74.6309 25
 188 1 -41.8571 75.3417 25
 189 1 -41.8571 76.7632 25
 190 1 -43.0882 77.474 25
 191 1 -43.0882 78.8956 25
 192 1 -44.3193 79.6063 25
 193 1 -44.3193 81.0279 25
 194 1 -45.5504 81.7386 25
 195 1 -45.5504 83.1602 25
 196 1 -46.7815 83.871 25
 197 1 -46.7815 85.2925 25
 198 1 -48.0126 86.0033 25
 199 1 -48.0126 87.4248 25
 200 1 -49.2436 88.1356 25
 201 1 -49.2436 89.5571 25
 202 1 -50.4747 90.2679 25
 203 1 -50.4747 91.6894 25
 204 1 -51.7058 92.4002 25
 205 1 -51.7058 93.8217 25
 206 1 -52.9369 94.5325 25
 207 1 -52.9369 95.9541 25
 208 1 -54.168 96.6648 25
 209 1 -54.168 98.0864 25
 210 1 -55.3991 98.7971 25
 211 1 -55.3991 100.219 25
 212 1 -56.6302 100.929 25
 213 1 -56.6302 102.351 25
 214 1 -57.8613 103.062 25
 215 1 -57.8613 104.483 25
 216 1 -59.0924 105.194 25
 217 1 -59.0924 106.616 25
 218 1 -60.3235 107.326 25
 219 1 -60.3235 108.748 25
 220 1 -61.5546 109.459 25
 221 1 -61.5546 110.88 25
 222 1 -62.7857 111.591 25
 223 1 -62.7857 113.013 25
 224 1 -64.0167 113.723 25
 225 1 -64.0167 115.145 25
 226 1 -65.2478 115.856 25
 227 1 -65.2478 117.277 25
 228 1 -66.4789 117.988 25
 229 1 -66.4789 119.409 25
 230 1 -67.71 120.12 25
 231 1 -67.71 121.542 25
 232 1 -68.9411 122.253 25
 233 1 -70.1722 124.385 25
 234 1 -70.1722 125.806 25
 235 1 -71.4033 126.517 25
 236 1 4.92436 0 25
 237 1 3.69327 0.710771 25
 238 1 3.69327 2.13231 25
 239 1 2.46218 2.84308 25
 240 1 2.46218 4.26462 25
 241 1 1.23109 4.9754 25
 242 1 1.23109 6.39694 25
 243 1 0 7.10771 25
 244 1 2.66454e-15 8.52925 25
 245 1 -1.23109 9.24002 25
 246 1 -1.23109 10.6616 25
 247 1 -2.46218 11.3723 25
 248 1 -2.46218 12.7939 25
 249 1 -3.69327 13.5046 25
 250 1 -3.69327 14.9262 25
 251 1 -4.92436 15.637 25
 252 1 -4.92436 17.0585 25
 253 1 -6.15546 17.7693 25
 254 1 -6.15546 19.1908 25
 255 1 -7.38655 19.9016 25
 256 1 -7.38655 21.3231 25
 257 1 -8.61764 22.0339 25
 258 1 -8.61764 23.4554 25
 259 1 -9.84873 24.1662 25
 260 1 -9.84873 25.5877 25
 261 1 -11.0798 26.2985 25
 262 1 -11.0798 27.7201 25
 263 1 -12.3109 28.4308 25
 264 1 -12.3109 29.8524 25
 265 1 -13.542 30.5631 25
 266 1 -13.542 31.9847 25
 267 1 -14.7731 32.6955 25
 268 1 -14.7731 34.117 25
 269 1 -16.0042 34.8278 25
 270 1 -16.0042 36.2493 25
 271 1 -17.2353 36.9601 25
 272 1 -17.2353 38.3816 25
 273 1 -18.4664 39.0924 25
 274 1 -18.4664 40.5139 25
 275 1 -19.6975 41.2247 25
 276 1 -19.6975 42.6462 25
 277 1 -20.9286 43.357 25
 278 1 -20.9286 44.7786 25
 279 1 -22.1596 45.4893 25
 280 1 -22.1596 46.9109 25
 281 1 -23.3907 47.6216 25
 282 1 -23.3907 49.0432 25
 283 1 -24.6218 49.754 25
 284 1 -24.6218 51.1755 25
 285 1 -25.8529 51.8863 25
 286 1 -25.8529 53.3078 25
 287 1 -27.084 54.0186 25
 288 1 -27.084 55.4401 25
 289 1 -28.3151 56.1509 25
 290 1 -28.3151 57.5724 25
 291 1 -29.5462 58.2832 25
 292 1 -29.5462 59.7047 25
 293 1 -30.7773 60.4155 25
 294 1 -30.7773 61.8371 25
 295 1 -32.0084 62.5478 25
 296 1 -32.0084 63.9694 25
 297 1 -33.2395 64.6801 25
 298 1 -33.2395 66.1017 25
 299 1 -34.4706 66.8125 25
 300 1 -34.4706 68.234 25
 301 1 -35.7016 68.9448 25
 302 1 -35.7016 70.3663 25
 303 1 -36.9327 71.0771 25
 304 1 -36.9327 72.4986 25
 305 1 -38.1638 73.2094 25
 306 1 -38.1638 74.6309 25
 307 1 -39.3949 75.3417 25
 308 1 -39.3949 76.7632 25
 309 1 -40.626 77.474 25
 310 1 -40.626 78.8956 25
 311 1 -41.8571 79.6063 25
 312 1 -41.8571 81.0279 25
 313 1 -43.0882 81.7386 25
 314 1 -43.0882 83.1602 25
 315 1 -44.3193 83.871 25
 316 1 -44.3193 85.2925 25
 317 1 -45.5504 86.0033 25
 318 1 -45.5504 87.4248 25
 319 1 -46.7815 88.1356 25
 320 1 -46.7815 89.5571 25
 321 1 -48.0126 90.2679 25
 322 1 -48.0126 91.6894 25
 323 1 -49.2436 92.4002 25
 324 1 -49.2436 93.8217 25
 325 1 -50.4747 94.5325 25
 326 1 -50.4747 95.9541 25
 327 1 -51.7058 96.6648 25
 328 1 -51.7058 98.0864 25
 329 1 -52.9369 98.7971 25
 330 1 -52.9369 100.219 25
 331 1 -54.168 100.929 25
 332 1 -54.168 102.351 25
 333 1 -55.3991 103.062 25
 334 1 -55.3991 104.483 25
 335 1 -56.6302 105.194 25
 336 1 -56.6302 106.616 25
 337 1 -57.8613 107.326 25
 338 1 -57.8613 108.748 25
 339 1 -59.0924 109.459 25
 340 1 -59.0924 110.88 25
 341 1 -60.3235 111.591 25
 342 1 -60.3235 113.013 25
 343 1 -61.5546 113.723 25
 344 1 -61.5546 115.145 25
 345 1 -62.7857 115.856 25
 346 1 -62.7857 117.277 25
 347 1 -64.0167 117.988 25
 348 1 -64.0167 119.409 25
 349 1 -65.2478 120.12 25
 350 1 -65.2478 121.542 25
 351 1 -66.4789 122.253 25
 352 1 -66.4789 123.674 25
 353 1 -67.71 125.806 25
 354 1 -68.9411 126.517 25
 355 1 7.38655 0 25
 356 1 6.15546 0.710771 25
 357 1 6.15546 2.13231 25
 358 1 4.92436 2.84308 25
 359 1 4.92436 4.26462 25
 360 1 3.69327 4.9754 25
 361 1 3.69327 6.39694 25
 362 1 2.46218 7.10771 25
 363 1 2.46218 8.52925 25
 364 1 1.23109 9.24002 25
 365 1 1.23109 10.6616 25
 366 1 2.66454e-15 11.3723 25
 367 1 3.55271e-15 12.7939 25
 368 1 -1.23109 13.5046 25
 369 1 -1.23109 14.9262 25
 370 1 -2.46218 15.637 25
 371 1 -2.46218 17.0585 25
 372 1 -3.69327 17.7693 25
 373 1 -3.69327 19.1908 25
 374 1 -4.92436 19.9016 25
 375 1 -4.92436 21.3231 25
 376 1 -6.15546 22.0339 25
 377 1 -6.15546 23.4554 25
 378 1 -7.38655 24.1662 25
 379 1 -7.38655 25.5877 25
 380 1 -8.61764 26.2985 25
 381 1 -8.61764 27.7201 25
 382 1 -9.84873 28.4308 25
 383 1 -9.84873 29.8524 25
 384 1 -11.0798 30.5631 25
 385 1 -11.0798 31.9847 25
 386 1 -12.3109 32.6955 25
 387 1 -12.3109 34.117 25
 388 1 -13.542 34.8278 25
 389 1 -13.542 36.2493 25
 390 1 -14.7731 36.9601 25
 391 1 -14.7731 38.3816 25
 392 1 -16.0042 39.0924 25
 393 1 -16.0042 40.5139 25
 394 1 -17.2353 41.2247 25
 395 1 -17.2353 42.6462 25
 396 1 -18.4664 43.357 25
 397 1 -18.4664 44.7786 25
 398 1 -19.6975 45.4893 25
 399 1 -19.6975 46.9109 25
 400 1 -20.9286 47.6216 25
 401 1 -20.9286 49.0432 25
 402 1 -22.1596 49.754 25
 403 1 -22.1596 51.1755 25
 404 1 -23.3907 51.8863 25
 405 1 -23.3907 53.3078 25
 406 1 -24.6218 54.0186 25
 407 1 -24.6218 55.4401 25
 408 1 -25.8529 56.1509 25
 409 1 -25.8529 57.5724 25
 410 1 -27.084 58.2832 25
 411 1 -27.084 59.7047 25
 412 1 -28.3151 60.4155 25
 413 1 -28.3151 61.8371 25
 414 1 -29.5462 62.5478 25
 415 1 -29.5462 63.9694 25
 416 1 -30.7773 64.6801 25
 417 1 -30.7773 66.1017 25
 418 1 -32.0084 66.8125 25
 419 1 -32.0084 68.234 25
 420 1 -33.2395 68.9448 25
 421 1 -33.2395 70.3663 25
 422 1 -34.4706 71.0771 25
 423 1 -34.4706 72.4986 25
 424 1 -35.7016 73.2094 25
 425 1 -35.7016 74.6309 25
 426 1 -36.9327 75.3417 25
 427 1 -36.9327 76.7632 25
 428 1 -38.1638 77.474 25
 429 1 -38.1638 78.8956 25
 430 1 -39.3949 79.6063 25
 431 1 -39.3949 81.0279 25
 432 1 -40.626 81.7386 25
 433 1 -40.626 83.1602 25
 434 1 -41.8571 83.871 25
 435 1 -41.8571 85.2925 25
 436 1 -43.0882 86.0033 25
 437 1 -43.0882 87.4248 25
 438 1 -44.3193 88.1356 25
 439 1 -44.3193 89.5571 25
 440 1 -45.5504 90.2679 25
 441 1 -45.5504 91.6894 25
 442 1 -46.7815 92.4002 25
 443 1 -46.7815 93.8217 25
 444 1 -48.0126 94.5325 25
 445 1 -48.0126 95.9541 25
 446 1 -49.2436 96.6648 25
 447 1 -49.2436 98.0864 25
 448 1 -50.4747 98.7971 25
 449 1 -50.4747 100.219 25
 450 1 -51.7058 100.929 25
 451 1 -51.7058 102.351 25
 452 1 -52.9369 103.062 25
 453 1 -52.9369 104.483 25
 454 1 -54.168 105.194 25
 455 1 -54.168 106.616 25
 456 1 -55.3991 107.326 25
 457 1 -55.3991 108.748 25
 458 1 -56.6302 109.459 25
 459 1 -56.6302 110.88 25
 460 1 -57.8613 111.591 25
 461 1 -57.8613 113.013 25
 462 1 -59.0924 113.723 25
 463 1 -59.0924 115.145 25
 464 1 -60.3235 115.856 25
 465 1 -60.3235 117.277 25
 466 1 -61.5546 117.988 25
 467 1 -61.5546 119.409 25
 468 1 -62.7857 120.12 25
 469 1 -62.7857 121.542 25
 470 1 -64.0167 122.253 25
 471 1 -64.0167 123.674 25
 472 1 -65.2478 124.385 25
 473 1 -65.2478 125.806 25
 474 1 -66.4789 126.517 25
 475 1 9.84873 0 25
 476 1 8.61764 0.710771 25
 477 1 8.61764 2.13231 25
 478 1 7.38655 2.84308 25
 479 1 7.38655 4.26462 25
 480 1 6.15546 4.9754 25
 481 1 6.15546 6.39694 25
 482 1 4.92436 7.10771 25
 483 1 4.92436 8.52925 25
 484 1 3.69327 9.24002 25
 485 1 3.69327 10.6616 25
 486 1 2.46218 11.3723 25
 487 1 2.46218 12.7939 25
 488 1 1.23109 13.5046 25
 489 1 1.23109 14.9262 25
 490 1 0 15.637 25
 491 1 5.32907e-15 17.0585 25
 492 1 -1.23109 17.7693 25
 493 1 -1.23109 19.1908 25
 494 1 -2.46218 19.9016 25
 495 1 -2.46218 21.3231 25
 496 1 -3.69327 22.0339 25
 497 1 -3.69327 23.4554 25
 498 1 -4.92436 24.1662 25
 499 1 -4.92436 25.5877 25
 500 1 -6.15546 26.2985 25
 501 1 -6.15546 27.7201 25
 502 1 -7.38655 28.4308 25
 503 1 -7.38655 29.8524 25
 504 1 -8.61764 30.5631 25
 505 1 -8.61764 31.9847 25
 506 1 -9.84873 32.6955 25
 507 1 -9.84873 34.117 25
 508 1 -11.0798 34.8278 25
 509 1 -11.0798 36.2493 25
 510 1 -12.3109 36.9601 25
 511 1 -12.3109 38.3816 25
 512 1 -13.542 39.0924 25
 513 1 -13.542 40.5139 25
 514 1 -14.7731 41.2247 25
 515 1 -14.7731 42.6462 25
 516 1 -16.0042 43.357 25
 517 1 -16.0042 44.7786 25
 518 1 -17.2353 45.4893 25
 519 1 -17.2353 46.9109 25
 520 1 -18.4664 47.6216 25
 521 1 -18.4664 49.0432 25
 522 1 -19.6975 49.754 25
 523 1 -19.6975 51.1755 25
 524 1 -20.9286 51.8863 25
 525 1 -20.9286 53.3078 25
 526 1 -22.1596 54.0186 25
 527 1 -22.1596 55.4401 25
 528 1 -23.3907 56.1509 25
 529 1 -23.3907 57.5724 25
 530 1 -24.6218 58.2832 25
 531 1 -24.6218 59.7047 25
 532 1 -25.8529 60.4155 25
 533 1 -25.8529 61.8371 25
 534 1 -27.084 62.5478 25
 535 1 -27.084 63.9694 25
 536 1 -28.3151 64.6801 25
 537 1 -28.3151 66.1017 25
 538 1 -29.5462 66.8125 25
 539 1 -29.5462 68.234 25
 540 1 -30.7773 68.9448 25
 541 1 -30.7773 70.3663 25
 542 1 -32.0084 71.0771 25
 543 1 -32.0084 72.4986 25
 544 1 -33.2395 73.2094 25
 545 1 -33.2395 74.6309 25
 546 1 -34.4706 75.3417 25
 547 1 -34.4706 76.7632 25
 548 1 -35.7016 77.474 25
 549 1 -35.7016 78.8956 25
 550 1 -36.9327 79.6063 25
 551 1 -36.9327 81.0279 25
 552 1 -38.1638 81.7386 25
 553 1 -38.1638 83.1602 25
 554 1 -39.3949 83.871 25
 555 1 -39.3949 85.2925 25
 556 1 -40.626 86.0033 25
 557 1 -40.626 87.4248 25
 558 1 -41.8571 88.1356 25
 559 1 -43.0882 91.6894 25
 560 1 -44.3193 92.4002 25
 561 1 -44.3193 93.8217 25
 562 1 -45.5504 94.5325 25
 563 1 -45.5504 95.9541 25
 564 1 -46.7815 96.6648 25
 565 1 -46.7815 98.0864 25
 566 1 -48.0126 98.7971 25
 567 1 -48.0126 100.219 25
 568 1 -49.2436 100.929 25
 569 1 -49.2436 102.351 25
 570 1 -50.4747 103.062 25
 571 1 -50.4747 104.483 25
 572 1 -51.7058 105.194 25
 573 1 -51.7058 106.616 25
 574 1 -52.9369 107.326 25
 575 1 -52.9369 108.748 25
 576 1 -54.168 109.459 25
 577 1 -54.168 110.88 25
 578 1 -55.3991 111.591 25
 579 1 -55.3991 113.013 25
 580 1 -56.6302 113.723 25
 581 1 -56.6302 115.145 25
 582 1 -57.8613 115.856 25
 583 1 -57.8613 117.277 25
 584 1 -59.0924 117.988 25
 585 1 -59.0924 119.409 25
 586 1 -60.3235 120.12 25
 587 1 -60.3235 121.542 25
 588 1 -61.5546 122.253 25
 589 1 -61.5546 123.674 25
 590 1 -62.7857 124.385 25
 591 1 -62.7857 125.806 25
 592 1 -64.0167 126.517 25
 593 1 12.3109 0 25
 594 1 11.0798 0.710771 25
 595 1 11.0798 2.13231 25
 596 1 9.84873 2.84308 25
 597 1 9.84873 4.26462 25
 598 1 8.61764 4.9754 25
 599 1 8.61764 6.39694 25
 600 1 7.38655 7.10771 25
 601 1 7.38655 8.52925 25
 602 1 6.15546 9.24002 25
 603 1 6.15546 10.6616 25
 604 1 4.92436 11.3723 25
 605 1 4.92436 12.7939 25
 606 1 3.69327 13.5046 25
 607 1 3.69327 14.9262 25
 608 1 2.46218 15.637 25
 609 1 2.46218 17.0585 25
 610 1 1.23109 17.7693 25
 611 1 1.23109 19.1908 25
 612 1 0 19.9016 25
 613 1 0 21.3231 25
 614 1 -1.23109 22.0339 25
 615 1 -1.23109 23.4554 25
 616 1 -2.46218 24.1662 25
 617 1 -2.46218 25.5877 25
 618 1 -3.69327 26.2985 25
 619 1 -3.69327 27.7201 25
 620 1 -4.92436 28.4308 25
 621 1 -4.92436 29.8524 25
 622 1 -6.15546 30.5631 25
 623 1 -6.15546 31.9847 25
 624 1 -7.38655 32.6955 25
 625 1 -7.38655 34.117 25
 626 1 -8.61764 34.8278 25
 627 1 -8.61764 36.2493 25
 628 1 -9.84873 36.9601 25
 629 1 -9.84873 38.3816 25
 630 1 -11.0798 39.0924 25
 631 1 -11.0798 40.5139 25
 632 1 -12.3109 41.2247 25
 633 1 -12.3109 42.6462 25
 634 1 -13.542 43.357 25
 635 1 -13.542 44.7786 25
 636 1 -14.7731 45.4893 25
 637 1 -14.7731 46.9109 25
 638 1 -16.0042 47.6216 25
 639 1 -16.0042 49.0432 25
 640 1 -17.2353 49.754 25
 641 1 -17.2353 51.1755 25
 642 1 -18.4664 51.8863 25
 643 1 -18.4664 53.3078 25
 644 1 -19.6975 54.0186 25
 645 1 -19.6975 55.4401 25
 646 1 -20.9286 56.1509 25
 647 1 -20.9286 57.5724 25
 648 1 -22.1596 58.2832 25
 649 1 -22.1596 59.7047 25
 650 1 -23.3907 60.4155 25
 651 1 -23.3907 61.8371 25
 652 1 -24.6218 62.5478 25
 653 1 -24.6218 63.9694 25
 654 1 -25.8529 64.6801 25
 655 1 -25.8529 66.1017 25
 656 1 -27.084 66.8125 25
 657 1 -27.084 68.234 25
 658 1 -28.3151 68.9448 25
 659 1 -28.3151 70.3663 25
 660 1 -29.5462 71.0771 25
 661 1 -29.5462 72.4986 25
 662 1 -30.7773 73.2094 25
 663 1 -30.7773 74.6309 25
 664 1 -33.2395 77.474 25
 665 1 -33.2395 78.8956 25
 666 1 -34.4706 79.6063 25
 667 1 -34.4706 81.0279 25
 668 1 -35.7016 81.7386 25
 669 1 -35.7016 83.1602 25
 670 1 -36.9327 83.871 25
 671 1 -36.9327 85.2925 25
 672 1 -38.1638 86.0033 25
 673 1 -38.1638 87.4248 25
 674 1 -39.3949 88.1356 25
 675 1 -39.3949 89.5571 25
 676 1 -40.626 90.2679 25
 677 1 -40.626 91.6894 25
 678 1 -41.8571 92.4002 25
 679 1 -41.8571 93.8217 25
 680 1 -43.0882 94.5325 25
 681 1 -43.0882 95.9541 25
 682 1 -44.3193 96.6648 25
 683 1 -44.3193 98.0864 25
 684 1 -45.5504 98.7971 25
 685 1 -45.5504 100.219 25
 686 1 -46.7815 100.929 25
 687 1 -46.7815 102.351 25
 688 1 -48.0126 103.062 25
 689 1 -48.0126 104.483 25
 690 1 -49.2436 105.194 25
 691 1 -49.2436 106.616 25
 692 1 -50.4747 107.326 25
 693 1 -50.4747 108.748 25
 694 1 -51.7058 109.459 25
 695 1 -51.7058 110.88 25
 696 1 -52.9369 111.591 25
 697 1 -52.9369 113.013 25
 698 1 -54.168 113.723 25
 699 1 -54.168 115.145 25
 700 1 -55.3991 115.856 25
 701 1 -55.3991 117.277 25
 702 1 -56.6302 117.988 25
 703 1 -56.6302 119.409 25
 704 1 -57.8613 120.12 25
 705 1 -57.8613 121.542 25
 706 1 -59.0924 122.253 25
 707 1 -59.0924 123.674 25
 708 1 -60.3235 124.385 25
 709 1 -60.3235 125.806 25
 710 1 -61.5546 126.517 25
 711 1 14.7731 0 25
 712 1 13.542 0.710771 25
 713 1 13.542 2.13231 25
 714 1 12.3109 2.84308 25
 715 1 12.3109 4.26462 25
 716 1 11.0798 4.9754 25
 717 1 11.0798 6.39694 25
 718 1 9.84873 7.10771 25
 719 1 9.84873 8.52925 25
 720 1 8.61764 9.24002 25
 721 1 8.61764 10.6616 25
 722 1 7.38655 11.3723 25
 723 1 7.38655 12.7939 25
 724 1 6.15546 13.5046 25
 725 1 6.15546 14.9262 25
 726 1 4.92436 15.637 25
 727 1 4.92436 17.0585 25
 728 1 3.69327 17.7693 25
 729 1 3.69327 19.1908 25
 730 1 2.46218 19.9016 25
 731 1 2.46218 21.3231 25
 732 1 1.23109 22.0339 25
 733 1 1.23109 23.4554 25
 734 1 5.32907e-15 24.1662 25
 735 1 7.10543e-15 25.5877 25
 736 1 -1.23109 26.2985 25
 737 1 -1.23109 27.7201 25
 738 1 -2.46218 28.4308 25
 739 1 -2.46218 29.8524 25
 740 1 -3.69327 30.5631 25
 741 1 -3.69327 31.9847 25
 742 1 -4.92436 32.6955 25
 743 1 -4.92436 34.117 25
 744 1 -6.15546 34.8278 25
 745 1 -6.15546 36.2493 25
 746 1 -7.38655 36.9601 25
 747 1 -7.38655 38.3816 25
 748 1 -8.61764 39.0924 25
 749 1 -8.61764 40.5139 25
 750 1 -9.84873 41.2247 25
 751 1 -9.84873 42.6462 25
 752 1 -11.0798 43.357 25
 753 1 -11.0798 44.7786 25
 754 1 -12.3109 45.4893 25
 755 1 -12.3109 46.9109 25
 756 1 -13.542 47.6216 25
 757 1 -13.542 49.0432 25
 758 1 -14.7731 49.754 25
 759 1 -14.7731 51.1755 25
 760 1 -16.0042 51.8863 25
 761 1 -16.0042 53.3078 25
 762 1 -17.2353 54.0186 25
 763 1 -17.2353 55.4401 25
 764 1 -18.4664 56.1509 25
 765 1 -18.4664 57.5724 25
 766 1 -19.6975 58.2832 25
 767 1 -19.6975 59.7047 25
 768 1 -20.9286 60.4155 25
 769 1 -20.9286 61.8371 25
 770 1 -22.1596 62.5478 25
 771 1 -22.1596 63.9694 25
 772 1 -23.3907 64.6801 25
 773 1 -23.3907 66.1017 25
 774 1 -24.6218 66.8125 25
 775 1 -24.6218 68.234 25
 776 1 -25.8529 68.9448 25
 777 1 -25.8529 70.3663 25
 778 1 -27.084 71.0771 25
 779 1 -27.084 72.4986 25
 780 1 -28.3151 73.2094 25
 781 1 -28.3151 74.6309 25
 782 1 -29.5462 75.3417 25
 783 1 -29.5462 76.7632 25
 784 1 -30.7773 77.474 25
 785 1 -30.7773 78.8956 25
 786 1 -32.0084 79.6063 25
 787 1 -32.0084 81.0279 25
 788 1 -33.2395 81.7386 25
 789 1 -33.2395 83.1602 25
 790 1 -34.4706 83.871 25
 791 1 -34.4706 85.2925 25
 792 1 -35.7016 86.0033 25
 793 1 -35.7016 87.4248 25
 794 1 -36.9327 88.1356 25
 795 1 -36.9327 89.5571 25
 796 1 -38.1638 90.2679 25
 797 1 -38.1638 91.6894 25
 798 1 -39.3949 92.4002 25
 799 1 -39.3949 93.8217 25
 800 1 -40.626 94.5325 25
 801 1 -40.626 95.9541 25
 802 1 -41.8571 96.6648 25
 803 1 -41.8571 98.0864 25
 804 1 -43.0882 98.7971 25
 805 1 -43.0882 100.219 25
 806 1 -44.3193 100.929 25
 807 1 -44.3193 102.351 25
 808 1 -45.5504 103.062 25
 809 1 -45.5504 104.483 25
 810 1 -46.7815 105.194 25
 811 1 -46.7815 106.616 25
 812 1 -48.0126 107.326 25
 813 1 -48.0126 108.748 25
 814 1 -49.2436 109.459 25
 815 1 -49.2436 110.88 25
 816 1 -50.4747 111.591 25
 817 1 -50.4747 113.013 25
 818 1 -51.7058 113.723 25
 819 1 -51.7058 115.145 25
 820 1 -52.9369 115.856 25
 821 1 -52.9369 117.277 25
 822 1 -54.168 117.988 25
 823 1 -54.168 119.409 25
 824 1 -55.3991 120.12 25
 825 1 -55.3991 121.542 25
 826 1 -56.6302 122.253 25
 827 1 -56.6302 123.674 25
 828 1 -57.8613 124.385 25
 829 1 -57.8613 125.806 25
 830 1 -59.0924 126.517 25
 831 1 17.2353 0 25
 832 1 16.0042 0.710771 25
 833 1 16.0042 2.13231 25
 834 1 14.7731 2.84308 25
 835 1 14.7731 4.26462 25
 836 1 13.542 4.9754 25
 837 1 13.542 6.39694 25
 838 1 12.3109 7.10771 25
 839 1 12.3109 8.52925 25
 840 1 11.0798 9.24002 25
 841 1 11.0798 10.6616 25
 842 1 9.84873 11.3723 25
 843 1 9.84873 12.7939 25
 844 1 8.61764 13.5046 25
 845 1 8.61764 14.9262 25
 846 1 7.38655 15.637 25
 847 1 7.38655 17.0585 25
 848 1 6.15546 17.7693 25
 849 1 6.15546 19.1908 25
 850 1 4.92436 19.9016 25
 851 1 4.92436 21.3231 25
 852 1 3.69327 22.0339 25
 853 1 3.69327 23.4554 25
 854 1 2.46218 24.1662 25
 855 1 2.46218 25.5877 25
 856 1 1.23109 26.2985 25
 857 1 1.23109 27.7201 25
 858 1 3.55271e-15 28.4308 25
 859 1 3.55271e-15 29.8524 25
 860 1 -1.23109 30.5631 25
 861 1 -1.23109 31.9847 25
 862 1 -2.46218 32.6955 25
 863 1 -2.46218 34.117 25
 864 1 -3.69327 34.8278 25
 865 1 -3.69327 36.2493 25
 866 1 -4.92436 36.9601 25
 867 1 -4.92436 38.3816 25
 868 1 -6.15546 39.0924 25
 869 1 -6.15546 40.5139 25
 870 1 -7.38655 41.2247 25
 871 1 -7.38655 42.6462 25
 872 1 -8.61764 43.357 25
 873 1 -8.61764 44.7786 25
 874 1 -9.84873 45.4893 25
 875 1 -9.84873 46.9109 25
 876 1 -11.0798 47.6216 25
 877 1 -11.0798 49.0432 25
 878 1 -12.3109 49.754 25
 879 1 -12.3109 51.1755 25
 880 1 -13.542 51.8863 25
 881 1 -13.542 53.3078 25
 882 1 -14.7731 54.0186 25
 883 1 -14.7731 55.4401 25
 884 1 -16.0042 56.1509 25
 885 1 -16.0042 57.5724 25
 886 1 -17.2353 58.2832 25
 887 1 -17.2353 59.7047 25
 888 1 -18.4664 60.4155 25
 889 1 -18.4664 61.8371 25
 890 1 -19.6975 62.5478 25
 891 1 -19.6975 63.9694 25
 892 1 -20.9286 64.6801 25
 893 1 -20.9286 66.1017 25
 894 1 -22.1596 66.8125 25
 895 1 -22.1596 68.234 25
 896 1 -23.3907 68.9448 25
 897 1 -23.3907 70.3663 25
 898 1 -24.6218 71.0771 25
 899 1 -24.6218 72.4986 25
 900 1 -25.8529 73.2094 25
 901 1 -25.8529 74.6309 25
 902 1 -27.084 75.3417 25
 903 1 -27.084 76.7632 25
 904 1 -28.3151 77.474 25
 905 1 -28.3151 78.8956 25
 906 1 -29.5462 79.6063 25
 907 1 -29.5462 81.0279 25
 908 1 -30.7773 81.7386 25
 909 1 -30.7773 83.1602 25
 910 1 -32.0084 83.871 25
 911 1 -32.0084 85.2925 25
 912 1 -33.2395 86.0033 25
 913 1 -33.2395 87.4248 25
 914 1 -34.4706 88.1356 25
 915 1 -34.4706 89.5571 25
 916 1 -35.7016 90.2679 25
 917 1 -35.7016 91.6894 25
 918 1 -36.9327 92.4002 25
 919 1 -36.9327 93.8217 25
 920 1 -38.1638 94.5325 25
 921 1 -38.1638 95.9541 25
 922 1 -39.3949 96.6648 25
 923 1 -39.3949 98.0864 25
 924 1 -40.626 98.7971 25
 925 1 -40.626 100.219 25
 926 1 -41.8571 100.929 25
 927 1 -41.8571 102.351 25
 928 1 -43.0882 103.062 25
 929 1 -43.0882 104.483 25
 930 1 -44.3193 105.194 25
 931 1 -44.3193 106.616 25
 932 1 -45.5504 107.326 25
 933 1 -45.5504 108.748 25
 934 1 -46.7815 109.459 25
 935 1 -46.7815 110.88 25
 936 1 -48.0126 111.591 25
 937 1 -48.0126 113.013 25
 938 1 -49.2436 113.723 25
 939 1 -49.2436 115.145 25
 940 1 -50.4747 115.856 25
 941 1 -50.4747 117.277 25
 942 1 -51.7058 117.988 25
 943 1 -51.7058 119.409 25
 944 1 -52.9369 120.12 25
 945 1 -52.9369 121.542 25
 946 1 -54.168 122.253 25
 947 1 -54.168 123.674 25
 948 1 -55.3991 124.385 25
 949 1 -55.3991 125.806 25
 950 1 -56.6302 126.517 25
 951 1 19.6975 0 25
 952 1 18.4664 0.710771 25
 953 1 18.4664 2.13231 25
 954 1 17.2353 2.84308 25
 955 1 17.2353 4.26462 25
 956 1 16.0042 4.9754 25
 957 1 16.0042 6.39694 25
 958 1 14.7731 7.10771 25
 959 1 14.7731 8.52925 25
 960 1 13.542 9.24002 25
 961 1 13.542 10.6616 25
 962 1 12.3109 11.3723 25
 963 1 12.3109 12.7939 25
 964 1 11.0798 13.5046 25
 965 1 11.0798 14.9262 25
 966 1 9.84873 15.637 25
 967 1 9.84873 17.0585 25
 968 1 8.61764 17.7693 25
 969 1 8.61764 19.1908 25
 970 1 7.38655 19.9016 25
 971 1 7.38655 21.3231 25
 972 1 6.15546 22.0339 25
 973 1 6.15546 23.4554 25
 974 1 4.92436 24.1662 25
 975 1 4.92436 25.5877 25
 976 1 3.69327 26.2985 25
 977 1 3.69327 27.7201 25
 978 1 2.46218 28.4308 25
 979 1 2.46218 29.8524 25
 980 1 1.23109 30.5631 25
 981 1 1.23109 31.9847 25
 982 1 7.10543e-15 32.6955 25
 983 1 1.06581e-14 34.117 25
 984 1 -1.23109 34.8278 25
 985 1 -1.23109 36.2493 25
 986 1 -2.46218 36.9601 25
 987 1 -2.46218 38.3816 25
 988 1 -3.69327 39.0924 25
 989 1 -3.69327 40.5139 25
 990 1 -4.92436 41.2247 25
 991 1 -4.92436 42.6462 25
 992 1 -6.15546 43.357 25
 993 1 -6.15546 44.7786 25
 994 1 -7.38655 45.4893 25
 995 1 -7.38655 46.9109 25
 996 1 -8.61764 47.6216 25
 997 1 -8.61764 49.0432 25
 998 1 -9.84873 49.754 25
 999 1 -9.84873 51.1755 25
 1000 1 -11.0798 51.8863 25
 1001 1 -11.0798 53.3078 25
 1002 1 -12.3109 54.0186 25
 1003 1 -12.3109 55.4401 25
 1004 1 -13.542 56.1509 25
 1005 1 -13.542 57.5724 25
 1006 1 -14.7731 58.2832 25
 1007 1 -14.7731 59.7047 25
 1008 1 -16.0042 60.4155 25
 1009 1 -16.0042 61.8371 25
 1010 1 -17.2353 62.5478 25
 1011 1 -17.2353 63.9694 25
 1012 1 -18.4664 64.6801 25
 1013 1 -18.4664 66.1017 25
 1014 1 -19.6975 66.8125 25
 1015 1 -19.6975 68.234 25
 1016 1 -20.9286 68.9448 25
 1017 1 -20.9286 70.3663 25
 1018 1 -22.1596 71.0771 25
 1019 1 -22.1596 72.4986 25
 1020 1 -23.3907 73.2094 25
 1021 1 -23.3907 74.6309 25
 1022 1 -24.6218 75.3417 25
 1023 1 -24.6218 76.7632 25
 1024 1 -25.8529 77.474 25
 1025 1 -25.8529 78.8956 25
 1026 1 -27.084 79.6063 25
 1027 1 -27.084 81.0279 25
 1028 1 -28.3151 81.7386 25
 1029 1 -28.3151 83.1602 25
 1030 1 -29.5462 83.871 25
 1031 1 -29.5462 85.2925 25
 1032 1 -30.7773 86.0033 25
 1033 1 -30.7773 87.4248 25
 1034 1 -32.0084 88.1356 25
 1035 1 -32.0084 89.5571 25
 1036 1 -33.2395 90.2679 25
 1037 1 -33.2395 91.6894 25
 1038 1 -34.4706 92.4002 25
 1039 1 -34.4706 93.8217 25
 1040 1 -35.7016 94.5325 25
 1041 1 -35.7016 95.9541 25
 1042 1 -36.9327 96.6648 25
 1043 1 -36.9327 98.0864 25
 1044 1 -38.1638 98.7971 25
 1045 1 -38.1638 100.219 25
 1046 1 -39.3949 100.929 25
 1047 1 -39.3949 102.351 25
 1048 1 -40.626 103.062 25
 1049 1 -40.626 104.483 25
 1050 1 -41.8571 105.194 25
 1051 1 -41.8571 106.616 25
 1052 1 -44.3193 109.459 25
 1053 1 -44.3193 110.88 25
 1054 1 -45.5504 111.591 25
 1055 1 -45.5504 113.013 25
 1056 1 -46.7815 113.723 25
 1057 1 -46.7815 115.145 25
 1058 1 -48.0126 115.856 25
 1059 1 -48.0126 117.277 25
 1060 1 -49.2436 117.988 25
 1061 1 -49.2436 119.409 25
 1062 1 -50.4747 120.12 25
 1063 1 -50.4747 121.542 25
 1064 1 -51.7058 122.253 25
 1065 1 -51.7058 123.674 25
 1066 1 -52.9369 124.385 25
 1067 1 -52.9369 125.806 25
 1068 1 -54.168 126.517 25
 1069 1 22.1596 0 25
 1070 1 20.9286 0.710771 25
 1071 1 20.9286 2.13231 25
 1072 1 19.6975 2.84308 25
 1073 1 19.6975 4.26462 25
 1074 1 18.4664 4.9754 25
 1075 1 18.4664 6.39694 25
 1076 1 17.2353 7.10771 25
 1077 1 17.2353 8.52925 25
 1078 1 16.0042 9.24002 25
 1079 1 16.0042 10.6616 25
 1080 1 13.542 13.5046 25
 1081 1 13.542 14.9262 25
 1082 1 12.3109 15.637 25
 1083 1 12.3109 17.0585 25
 1084 1 11.0798 17.7693 25
 1085 1 11.0798 19.1908 25
 1086 1 9.84873 19.9016 25
 1087 1 9.84873 21.3231 25
 1088 1 8.61764 22.0339 25
 1089 1 8.61764 23.4554 25
 1090 1 7.38655 24.1662 25
 1091 1 7.38655 25.5877 25
 1092 1 6.15546 26.2985 25
 1093 1 6.15546 27.7201 25
 1094 1 4.92436 28.4308 25
 1095 1 4.92436 29.8524 25
 1096 1 3.69327 30.5631 25
 1097 1 3.69327 31.9847 25
 1098 1 2.46218 32.6955 25
 1099 1 2.46218 34.117 25
 1100 1 1.23109 34.8278 25
 1101 1 1.23109 36.2493 25
 1102 1 7.10543e-15 36.9601 25
 1103 1 -1.23109 39.0924 25
 1104 1 -1.23109 40.5139 25
 1105 1 -2.46218 41.2247 25
 1106 1 -2.46218 42.6462 25
 1107 1 -3.69327 43.357 25
 1108 1 -3.69327 44.7786 25
 1109 1 -4.92436 45.4893 25
 1110 1 -4.92436 46.9109 25
 1111 1 -6.15546 47.6216 25
 1112 1 -6.15546 49.0432 25
 1113 1 -7.38655 49.754 25
 1114 1 -7.38655 51.1755 25
 1115 1 -8.61764 51.8863 25
 1116 1 -8.61764 53.3078 25
 1117 1 -9.84873 54.0186 25
 1118 1 -9.84873 55.4401 25
 1119 1 -11.0798 56.1509 25
 1120 1 -11.0798 57.5724 25
 1121 1 -12.3109 58.2832 25