ITEM: TIMESTEP
0
ITEM: NUMBER OF ATOMS
7200
ITEM: BOX BOUNDS pp pp pp xy xz yz
-110.798 110.798 -73.8655
8.0447e-06 127.939 3.06162e-15
0 50 5.30288e-15
ITEM: ATOMS id type xu yu zu
 1 1 1.23109 0.710771 25
 2 1 4.80727e-14 1.42154 25
 3 1 4.86278e-14 2.84308 25
 4 1 -1.23109 3.55385 25
 5 1 -1.23109 4.9754 25
 6 1 -2.46218 5.68617 25
 7 1 -2.46218 7.10771 25
 8 1 -3.69327 7.81848 25
 9 1 -3.69327 9.24002 25
 10 1 -4.92436 9.95079 25
 11 1 -4.92436 11.3723 25
 12 1 -6.15546 12.0831 25
 13 1 -6.15546 13.5046 25
 14 1 -7.38655 14.2154 25
 15 1 -7.38655 15.637 25
 16 1 -8.61764 16.3477 25
 17 1 -8.61764 17.7693 25
 18 1 -9.84873 18.48 25
 19 1 -9.84873 19.9016 25
 20 1 -11.0798 20.6124 25
 21 1 -11.0798 22.0339 25
 22 1 -12.3109 22.7447 25
 23 1 -12.3109 24.1662 25
 24 1 -13.542 24.877 25
 25 1 -13.542 26.2985 25
 26 1 -14.7731 27.0093 25
 27 1 -14.7731 28.4308 25
 28 1 -16.0042 29.1416 25
 29 1 -16.0042 30.5631 25
 30 1 -17.2353 31.2739 25
 31 1 -17.2353 32.6955 25
 32 1 -18.4664 33.4062 25
 33 1 -18.4664 34.8278 25
 34 1 -19.6975 35.5385 25
 35 1 -19.6975 36.9601 25
 36 1 -20.9286 37.6709 25
 37 1 -20.9286 39.0924 25
 38 1 -22.1596 39.8032 25
 39 1 -22.1596 41.2247 25
 40 1 -23.3907 41.9355 25
 41 1 -23.3907 43.357 25
 42 1 -24.6218 44.0678 25
 43 1 -24.6218 45.4893 25
 44 1 -25.8529 46.2001 25
 45 1 -25.8529 47.6216 25
 46 1 -27.084 48.3324 25
 47 1 -27.084 49.754 25
 48 1 -28.3151 50.4647 25
 49 1 -28.3151 51.8863 25
 50 1 -29.5462 52.597 25
 51 1 -29.5462 54.0186 25
 52 1 -30.7773 54.7294 25
 53 1 -30.7773 56.1509 25
 54 1 -32.0084 56.8617 25
 55 1 -32.0084 58.2832 25
 56 1 -33.2395 58.994 25
 57 1 -33.2395 60.4155 25
 58 1 -34.4706 61.1263 25
 59 1 -34.4706 62.5478 25
 60 1 -35.7016 63.2586 25
 61 1 -35.7016 64.6801 25
 62 1 -36.9327 65.3909 25
 63 1 -36.9327 66.8125 25
 64 1 -38.1638 67.5232 25
 65 1 -38.1638 68.9448 25
 66 1 -39.3949 69.6555 25
 67 1 -39.3949 71.0771 25
 68 1 -40.626 71.7879 25
 69 1 -40.626 73.2094 25
 70 1 -41.8571 73.9202 25
 71 1 -41.8571 75.3417 25
 72 1 -43.0882 76.0525 25
 73 1 -43.0882 77.474 25
 74 1 -44.3193 78.1848 25
 75 1 -44.3193 79.6063 25
 76 1 -45.5504 80.3171 25
 77 1 -45.5504 81.7386 25
 78 1 -46.7815 82.4494 25
 79 1 -46.7815 83.871 25
 80 1 -48.0126 84.5817 25
 81 1 -48.0126 86.0033 25
 82 1 -49.2436 86.714 25
 83 1 -49.2436 88.1356 25
 84 1 -50.4747 88.8464 25
 85 1 -50.4747 90.2679 25
 86 1 -51.7058 90.9787 25
 87 1 -51.7058 92.4002 25
 88 1 -52.9369 93.111 25
 89 1 -52.9369 94.5325 25
 90 1 -54.168 95.2433 25
 91 1 -54.168 96.6648 25
 92 1 -55.3991 97.3756 25
 93 1 -55.3991 98.7971 25
 94 1 -56.6302 99.5079 25
 95 1 -56.6302 100.929 25
 96 1 -57.8613 101.64 25
 97 1 -57.8613 103.062 25
 98 1 -59.0924 103.773 25
 99 1 -59.0924 105.194 25
 100 1 -60.3235 105.905 25
 101 1 -60.3235 107.326 25
 102 1 -61.5546 108.037 25
 103 1 -61.5546 109.459 25
 104 1 -62.7857 110.169 25
 105 1 -62.7857 111.591 25
 106 1 -64.0167 112.302 25
 107 1 -64.0167 113.723 25
 108 1 -65.2478 114.434 25
 109 1 -65.2478 115.856 25
 110 1 -66.4789 116.566 25
 111 1 -66.4789 117.988 25
 112 1 -67.71 118.699 25
 113 1 -67.71 120.12 25
 114 1 -68.9411 120.831 25
 115 1 -68.9411 122.253 25
 116 1 -70.1722 122.963 25
 117 1 -70.1722 124.385 25
 118 1 -71.4033 125.096 25
 119 1 -71.4033 126.517 25
 120 1 -72.6344 127.228 25
 121 1 3.69327 0.710771 25
 122 1 2.46218 1.42154 25
 123 1 2.46218 2.84308 25
 124 1 1.23109 3.55385 25
 125 1 1.23109 4.9754 25
 126 1 4.79616e-14 5.68617 25
 127 1 4.88498e-14 7.10771 25
 128 1 -1.23109 7.81848 25
 129 1 -1.23109 9.24002 25
 130 1 -2.46218 9.95079 25
 131 1 -2.46218 11.3723 25
 132 1 -3.69327 12.0831 25
 133 1 -3.69327 13.5046 25
 134 1 -4.92436 14.2154 25
 135 1 -4.92436 15.637 25
 136 1 -6.15546 16.3477 25
 137 1 -6.15546 17.7693 25
 138 1 -7.38655 18.48 25
 139 1 -7.38655 19.9016 25
 140 1 -8.61764 20.6124 25
 141 1 -8.61764 22.0339 25
 142 1 -9.84873 22.7447 25
 143 1 -9.84873 24.1662 25
 144 1 -11.0798 24.877 25
 145 1 -11.0798 26.2985 25
 146 1 -12.3109 27.0093 25
 147 1 -12.3109 28.4308 25
 148 1 -13.542 29.1416 25
 149 1 -13.542 30.5631 25
 150 1 -14.7731 31.2739 25
 151 1 -14.7731 32.6955 25
 152 1 -16.0042 33.4062 25
 153 1 -16.0042 34.8278 25
 154 1 -17.2353 35.5385 25
 155 1 -17.2353 36.9601 25
 156 1 -18.4664 37.6709 25
 157 1 -18.4664 39.0924 25
 158 1 -19.6975 39.8032 25
 159 1 -19.6975 41.2247 25
 160 1 -20.9286 41.9355 25
 161 1 -20.9286 43.357 25
 162 1 -22.1596 44.0678 25
 163 1 -22.1596 45.4893 25
 164 1 -23.3907 46.2001 25
 165 1 -23.3907 47.6216 25
 166 1 -24.6218 48.3324 25
 167 1 -24.6218 49.754 25
 168 1 -25.8529 50.4647 25
 169 1 -25.8529 51.8863 25
 170 1 -27.084 52.597 25
 171 1 -27.084 54.0186 25
 172 1 -28.3151 54.7294 25
 173 1 -28.3151 56.1509 25
 174 1 -29.5462 56.8617 25
 175 1 -29.5462 58.2832 25
 176 1 -30.7773 58.994 25
 177 1 -30.7773 60.4155 25
 178 1 -32.0084 61.1263 25
 179 1 -32.0084 62.5478 25
 180 1 -33.2395 63.2586 25
 181 1 -33.2395 64.6801 25
 182 1 -34.4706 65.3909 25
 183 1 -34.4706 66.8125 25
 184 1 -35.7016 67.5232 25
 185 1 -35.7016 68.9448 25
 186 1 -36.9327 69.6555 25
 187 1 -36.9327 71.0771 25
 188 1 -38.1638 71.7879 25
 189 1 -38.1638 73.2094 25
 190 1 -39.3949 73.9202 25
 191 1 -39.3949 75.3417 25
 192 1 -40.626 76.0525 25
 193 1 -40.626 77.474 25
 194 1 -41.8571 78.1848 25
 195 1 -41.8571 79.6063 25
 196 1 -43.0882 80.3171 25
 197 1 -43.0882 81.7386 25
 198 1 -44.3193 82.4494 25
 199 1 -44.3193 83.871 25
 200 1 -45.5504 84.5817 25
 201 1 -45.5504 86.0033 25
 202 1 -46.7815 86.714 25
 203 1 -46.7815 88.1356 25
 204 1 -48.0126 88.8464 25
 205 1 -48.0126 90.2679 25
 206 1 -49.2436 90.9787 25
 207 1 -49.2436 92.4002 25
 208 1 -50.4747 93.111 25
 209 1 -50.4747 94.5325 25
 210 1 -51.7058 95.2433 25
 211 1 -51.7058 96.6648 25
 212 1 -52.9369 97.3756 25
 213 1 -52.9369 98.7971 25
 214 1 -54.168 99.5079 25
 215 1 -54.168 100.929 25
 216 1 -55.3991 101.64 25
 217 1 -55.3991 103.062 25
 218 1 -56.6302 103.773 25
 219 1 -56.6302 105.194 25
 220 1 -57.8613 105.905 25
 221 1 -57.8613 107.326 25
 222 1 -59.0924 108.037 25
 223 1 -59.0924 109.459 25
 224 1 -60.3235 110.169 25
 225 1 -60.3235 111.591 25
 226 1 -61.5546 112.302 25
 227 1 -61.5546 113.723 25
 228 1 -62.7857 114.434 25
 229 1 -62.7857 115.856 25
 230 1 -64.0167 116.566 25
 231 1 -64.0167 117.988 25
 232 1 -65.2478 118.699 25
 233 1 -65.2478 120.12 25
 234 1 -66.4789 120.831 25
 235 1 -66.4789 122.253 25
 236 1 -67.71 122.963 25
 237 1 -67.71 124.385 25
 238 1 -68.9411 125.096 25
 239 1 -68.9411 126.517 25
 240 1 -70.1722 127.228 25
 241 1 6.15546 0.710771 25
 242 1 4.92436 1.42154 25
 243 1 4.92436 2.84308 25
 244 1 3.69327 3.55385 25
 245 1 3.69327 4.9754 25
 246 1 2.46218 5.68617 25
 247 1 2.46218 7.10771 25
 248 1 1.23109 7.81848 25
 249 1 1.23109 9.24002 25
 250 1 4.79616e-14 9.95079 25
 251 1 4.79616e-14 11.3723 25
 252 1 -1.23109 12.0831 25
 253 1 -1.23109 13.5046 25
 254 1 -2.46218 14.2154 25
 255 1 -2.46218 15.637 25
 256 1 -3.69327 16.3477 25
 257 1 -3.69327 17.7693 25
 258 1 -4.92436 18.48 25
 259 1 -4.92436 19.9016 25
 260 1 -6.15546 20.6124 25
 261 1 -6.15546 22.0339 25
 262 1 -7.38655 22.7447 25
 263 1 -7.38655 24.1662 25
 264 1 -8.61764 24.877 25
 265 1 -8.61764 26.2985 25
 266 1 -9.84873 27.0093 25
 267 1 -9.84873 28.4308 25
 268 1 -11.0798 29.1416 25
 269 1 -11.0798 30.5631 25
 270 1 -12.3109 31.2739 25
 271 1 -12.3109 32.6955 25
 272 1 -13.542 33.4062 25
 273 1 -13.542 34.8278 25
 274 1 -14.7731 35.5385 25
 275 1 -14.7731 36.9601 25
 276 1 -16.0042 37.6709 25
 277 1 -16.0042 39.0924 25
 278 1 -17.2353 39.8032 25
 279 1 -17.2353 41.2247 25
 280 1 -18.4664 41.9355 25
 281 1 -18.4664 43.357 25
 282 1 -19.6975 44.0678 25
 283 1 -19.6975 45.4893 25
 284 1 -20.9286 46.2001 25
 285 1 -20.9286 47.6216 25
 286 1 -22.1596 48.3324 25
 287 1 -22.1596 49.754 25
 288 1 -23.3907 50.4647 25
 289 1 -23.3907 51.8863 25
 290 1 -24.6218 52.597 25
 291 1 -24.6218 54.0186 25
 292 1 -25.8529 54.7294 25
 293 1 -25.8529 56.1509 25
 294 1 -27.084 56.8617 25
 295 1 -27.084 58.2832 25
 296 1 -28.3151 58.994 25
 297 1 -28.3151 60.4155 25
 298 1 -29.5462 61.1263 25
 299 1 -29.5462 62.5478 25
 300 1 -30.7773 63.2586 25
 301 1 -30.7773 64.6801 25
 302 1 -32.0084 65.3909 25
 303 1 -32.0084 66.8125 25
 304 1 -33.2395 67.5232 25
 305 1 -33.2395 68.9448 25
 306 1 -34.4706 69.6555 25
 307 1 -34.4706 71.0771 25
 308 1 -35.7016 71.7879 25
 309 1 -35.7016 73.2094 25
 310 1 -36.9327 73.9202 25
 311 1 -36.9327 75.3417 25
 312 1 -38.1638 76.0525 25
 313 1 -38.1638 77.474 25
 314 1 -39.3949 78.1848 25
 315 1 -39.3949 79.6063 25
 316 1 -40.626 80.3171 25
 317 1 -40.626 81.7386 25
 318 1 -41.8571 82.4494 25
 319 1 -41.8571 83.871 25
 320 1 -43.0882 84.5817 25
 321 1 -43.0882 86.0033 25
 322 1 -44.3193 86.714 25
 323 1 -44.3193 88.1356 25
 324 1 -45.5504 88.8464 25
 325 1 -45.5504 90.2679 25
 326 1 -46.7815 90.9787 25
 327 1 -46.7815 92.4002 25
 328 1 -48.0126 93.111 25
 329 1 -48.0126 94.5325 25
 330 1 -49.2436 95.2433 25
 331 1 -49.2436 96.6648 25
 332 1 -50.4747 97.3756 25
 333 1 -50.4747 98.7971 25
 334 1 -51.7058 99.5079 25
 335 1 -51.7058 100.929 25
 336 1 -52.9369 101.64 25
 337 1 -52.9369 103.062 25
 338 1 -54.168 103.773 25
 339 1 -54.168 105.194 25
 340 1 -55.3991 105.905 25
 341 1 -55.3991 107.326 25
 342 1 -56.6302 108.037 25
 343 1 -56.6302 109.459 25
 344 1 -57.8613 110.169 25
 345 1 -57.8613 111.591 25
 346 1 -59.0924 112.302 25
 347 1 -59.0924 113.723 25
 348 1 -60.3235 114.434 25
 349 1 -60.3235 115.856 25
 350 1 -61.5546 116.566 25
 351 1 -61.5546 117.988 25
 352 1 -62.7857 118.699 25
 353 1 -62.7857 120.12 25
 354 1 -64.0167 120.831 25
 355 1 -64.0167 122.253 25
 356 1 -65.2478 122.963 25
 357 1 -65.2478 124.385 25
 358 1 -66.4789 125.096 25
 359 1 -66.4789 126.517 25
 360 1 -67.71 127.228 25
 361 1 8.61764 0.710771 25
 362 1 7.38655 1.42154 25
 363 1 7.38655 2.84308 25
 364 1 6.15546 3.55385 25
 365 1 6.15546 4.9754 25
 366 1 4.92436 5.68617 25
 367 1 4.92436 7.10771 25
 368 1 3.69327 7.81848 25
 369 1 3.69327 9.24002 25
 370 1 2.46218 9.95079 25
 371 1 2.46218 11.3723 25
 372 1 1.23109 12.0831 25
 373 1 1.23109 13.5046 25
 374 1 4.9738e-14 14.2154 25
 375 1 5.15143e-14 15.637 25
 376 1 -1.23109 16.3477 25
 377 1 -1.23109 17.7693 25
 378 1 -2.46218 18.48 25
 379 1 -2.46218 19.9016 25
 380 1 -3.69327 20.6124 25
 381 1 -3.69327 22.0339 25
 382 1 -4.92436 22.7447 25
 383 1 -4.92436 24.1662 25
 384 1 -6.15546 24.877 25
 385 1 -6.15546 26.2985 25
 386 1 -7.38655 27.0093 25
 387 1 -7.38655 28.4308 25
 388 1 -8.61764 29.1416 25
 389 1 -8.61764 30.5631 25
 390 1 -9.84873 31.2739 25
 391 1 -9.84873 32.6955 25
 392 1 -11.0798 33.4062 25
 393 1 -11.0798 34.8278 25
 394 1 -12.3109 35.5385 25
 395 1 -12.3109 36.9601 25
 396 1 -13.542 37.6709 25
 397 1 -13.542 39.0924 25
 398 1 -14.7731 39.8032 25
 399 1 -14.7731 41.2247 25
 400 1 -16.0042 41.9355 25
 401 1 -16.0042 43.357 25
 402 1 -17.2353 44.0678 25
 403 1 -17.2353 45.4893 25
 404 1 -18.4664 46.2001 25
 405 1 -18.4664 47.6216 25
 406 1 -19.6975 48.3324 25
 407 1 -19.6975 49.754 25
 408 1 -20.9286 50.4647 25
 409 1 -20.9286 51.8863 25
 410 1 -22.1596 52.597 25
 411 1 -22.1596 54.0186 25
 412 1 -23.3907 54.7294 25
 413 1 -23.3907 56.1509 25
 414 1 -24.6218 56.8617 25
 415 1 -24.6218 58.2832 25
 416 1 -25.8529 58.994 25
 417 1 -25.8529 60.4155 25
 418 1 -27.084 61.1263 25
 419 1 -27.084 62.5478 25
 420 1 -28.3151 63.2586 25
 421 1 -28.3151 64.6801 25
 422 1 -29.5462 65.3909 25
 423 1 -29.5462 66.8125 25
 424 1 -30.7773 67.5232 25
 425 1 -30.7773 68.9448 25
 426 1 -32.0084 69.6555 25
 427 1 -32.0084 71.0771 25
 428 1 -33.2395 71.7879 25
 429 1 -33.2395 73.2094 25
 430 1 -34.4706 73.9202 25
 431 1 -34.4706 75.3417 25
 432 1 -35.7016 76.0525 25
 433 1 -35.7016 77.474 25
 434 1 -36.9327 78.1848 25
 435 1 -36.9327 79.6063 25
 436 1 -38.1638 80.3171 25
 437 1 -38.1638 81.7386 25
 438 1 -39.3949 82.4494 25
 439 1 -39.3949 83.871 25
 440 1 -40.626 84.5817 25
 441 1 -40.626 86.0033 25
 442 1 -41.8571 86.714 25
 443 1 -41.8571 88.1356 25
 444 1 -43.0882 88.8464 25
 445 1 -43.0882 90.2679 25
 446 1 -44.3193 90.9787 25
 447 1 -44.3193 92.4002 25
 448 1 -45.5504 93.111 25
 449 1 -45.5504 94.5325 25
 450 1 -46.7815 95.2433 25
 451 1 -46.7815 96.6648 25
 452 1 -48.0126 97.3756 25
 453 1 -48.0126 98.7971 25
 454 1 -49.2436 99.5079 25
 455 1 -49.2436 100.929 25
 456 1 -50.4747 101.64 25
 457 1 -50.4747 103.062 25
 458 1 -51.7058 103.773 25
 459 1 -51.7058 105.194 25
 460 1 -52.9369 105.905 25
 461 1 -52.9369 107.326 25
 462 1 -54.168 108.037 25
 463 1 -54.168 109.459 25
 464 1 -55.3991 110.169 25
 465 1 -55.3991 111.591 25
 466 1 -56.6302 112.302 25
 467 1 -56.6302 113.723 25
 468 1 -57.8613 114.434 25
 469 1 -57.8613 115.856 25
 470 1 -59.0924 116.566 25
 471 1 -59.0924 117.988 25
 472 1 -60.3235 118.699 25
 473 1 -60.3235 120.12 25
 474 1 -61.5546 120.831 25
 475 1 -61.5546 122.253 25
 476 1 -62.7857 122.963 25
 477 1 -62.7857 124.385 25
 478 1 -64.0167 125.096 25
 479 1 -64.0167 126.517 25
 480 1 -65.2478 127.228 25
 481 1 11.0798 0.710771 25
 482 1 9.84873 1.42154 25
 483 1 9.84873 2.84308 25
 484 1 8.61764 3.55385 25
 485 1 8.61764 4.9754 25
 486 1 7.38655 5.68617 25
 487 1 7.38655 7.10771 25
 488 1 6.15546 7.81848 25
 489 1 6.15546 9.24002 25
 490 1 4.92436 9.95079 25
 491 1 4.92436 11.3723 25
 492 1 3.69327 12.0831 25
 493 1 3.69327 13.5046 25
 494 1 2.46218 14.2154 25
 495 1 2.46218 15.637 25
 496 1 1.23109 16.3477 25
 497 1 1.23109 17.7693 25
 498 1 4.79616e-14 18.48 25
 499 1 4.61853e-14 19.9016 25
 500 1 -1.23109 20.6124 25
 501 1 -1.23109 22.0339 25
 502 1 -2.46218 22.7447 25
 503 1 -2.46218 24.1662 25
 504 1 -3.69327 24.877 25
 505 1 -3.69327 26.2985 25
 506 1 -4.92436 27.0093 25
 507 1 -4.92436 28.4308 25
 508 1 -6.15546 29.1416 25
 509 1 -6.15546 30.5631 25
 510 1 -7.38655 31.2739 25
 511 1 -7.38655 32.6955 25
 512 1 -8.61764 33.4062 25
 513 1 -8.61764 34.8278 25
 514 1 -9.84873 35.5385 25
 515 1 -9.84873 36.9601 25
 516 1 -11.0798 37.6709 25
 517 1 -11.0798 39.0924 25
 518 1 -12.3109 39.8032 25
 519 1 -12.3109 41.2247 25
 520 1 -13.542 41.9355 25
 521 1 -13.542 43.357 25
 522 1 -14.7731 44.0678 25
 523 1 -14.7731 45.4893 25
 524 1 -16.0042 46.2001 25
 525 1 -16.0042 47.6216 25
 526 1 -17.2353 48.3324 25
 527 1 -17.2353 49.754 25
 528 1 -18.4664 50.4647 25
 529 1 -18.4664 51.8863 25
 530 1 -19.6975 52.597 25
 531 1 -19.6975 54.0186 25
 532 1 -20.9286 54.7294 25
 533 1 -20.9286 56.1509 25
 534 1 -22.1596 56.8617 25
 535 1 -22.1596 58.2832 25
 536 1 -23.3907 58.994 25
 537 1 -23.3907 60.4155 25
 538 1 -24.6218 61.1263 25
 539 1 -24.6218 62.5478 25
 540 1 -25.8529 63.2586 25
 541 1 -25.8529 64.6801 25
 542 1 -27.084 65.3909 25
 543 1 -27.084 66.8125 25
 544 1 -28.3151 67.5232 25
 545 1 -28.3151 68.9448 25
 546 1 -29.5462 69.6555 25
 547 1 -29.5462 71.0771 25
 548 1 -30.7773 71.7879 25
 549 1 -30.7773 73.2094 25
 550 1 -32.0084 73.9202 25
 551 1 -32.0084 75.3417 25
 552 1 -33.2395 76.0525 25
 553 1 -33.2395 77.474 25
 554 1 -34.4706 78.1848 25
 555 1 -34.4706 79.6063 25
 556 1 -35.7016 80.3171 25
 557 1 -35.7016 81.7386 25
 558 1 -36.9327 82.4494 25
 559 1 -36.9327 83.871 25
 560 1 -38.1638 84.5817 25
 561 1 -38.1638 86.0033 25
 562 1 -39.3949 86.714 25
 563 1 -39.3949 88.1356 25
 564 1 -40.626 88.8464 25
 565 1 -40.626 90.2679 25
 566 1 -41.8571 90.9787 25
 567 1 -41.8571 92.4002 25
 568 1 -43.0882 93.111 25
 569 1 -43.0882 94.5325 25
 570 1 -44.3193 95.2433 25
 571 1 -44.3193 96.6648 25
 572 1 -45.5504 97.3756 25
 573 1 -45.5504 98.7971 25
 574 1 -46.7815 99.5079 25
 575 1 -46.7815 100.929 25
 576 1 -48.0126 101.64 25
 577 1 -48.0126 103.062 25
 578 1 -49.2436 103.773 25
 579 1 -49.2436 105.194 25
 580 1 -50.4747 105.905 25
 581 1 -50.4747 107.326 25
 582 1 -51.7058 108.037 25
 583 1 -51.7058 109.459 25
 584 1 -52.9369 110.169 25
 585 1 -52.9369 111.591 25
 586 1 -54.168 112.302 25
 587 1 -54.168 113.723 25
 588 1 -55.3991 114.434 25
 589 1 -55.3991 115.856 25
 590 1 -56.6302 116.566 25
 591 1 -56.6302 117.988 25
 592 1 -57.8613 118.699 25
 593 1 -57.8613 120.12 25
 594 1 -59.0924 120.831 25
 595 1 -59.0924 122.253 25
 596 1 -60.3235 122.963 25
 597 1 -60.3235 124.385 25
 598 1 -61.5546 125.096 25
 599 1 -61.5546 126.517 25
 600 1 -62.7857 127.228 25
 601 1 13.542 0.710771 25
 602 1 12.3109 1.42154 25
 603 1 12.3109 2.84308 25
 604 1 11.0798 3.55385 25
 605 1 11.0798 4.9754 25
 606 1 9.84873 5.68617 25
 607 1 9.84873 7.10771 25
 608 1 8.61764 7.81848 25
 609 1 8.61764 9.24002 25
 610 1 7.38655 9.95079 25
 611 1 7.38655 11.3723 25
 612 1 6.15546 12.0831 25
 613 1 6.15546 13.5046 25
 614 1 4.92436 14.2154 25
 615 1 4.92436 15.637 25
 616 1 3.69327 16.3477 25
 617 1 3.69327 17.7693 25
 618 1 2.46218 18.48 25
 619 1 2.46218 19.9016 25
 620 1 1.23109 20.6124 25
 621 1 1.23109 22.0339 25
 622 1 4.9738e-14 22.7447 25
 623 1 4.9738e-14 24.1662 25
 624 1 -1.23109 24.877 25
 625 1 -1.23109 26.2985 25
 626 1 -2.46218 27.0093 25
 627 1 -2.46218 28.4308 25
 628 1 -3.69327 29.1416 25
 629 1 -3.69327 30.5631 25
 630 1 -4.92436 31.2739 25
 631 1 -4.92436 32.6955 25
 632 1 -6.15546 33.4062 25
 633 1 -6.15546 34.8278 25
 634 1 -7.38655 35.5385 25
 635 1 -7.38655 36.9601 25
 636 1 -8.61764 37.6709 25
 637 1 -8.61764 39.0924 25
 638 1 -9.84873 39.8032 25
 639 1 -9.84873 41.2247 25
 640 1 -11.0798 41.9355 25
 641 1 -11.0798 43.357 25
 642 1 -12.3109 44.0678 25
 643 1 -12.3109 45.4893 25
 644 1 -13.542 46.2001 25
 645 1 -13.542 47.6216 25
 646 1 -14.7731 48.3324 25
 647 1 -14.7731 49.754 25
 648 1 -16.0042 50.4647 25
 649 1 -16.0042 51.8863 25
 650 1 -17.2353 52.597 25
 651 1 -17.2353 54.0186 25
 652 1 -18.4664 54.7294 25
 653 1 -18.4664 56.1509 25
 654 1 -19.6975 56.8617 25
 655 1 -19.6975 58.2832 25
 656 1 -20.9286 58.994 25
 657 1 -20.9286 60.4155 25
 658 1 -22.1596 61.1263 25
 659 1 -22.1596 62.5478 25
 660 1 -23.3907 63.2586 25
 661 1 -23.3907 64.6801 25
 662 1 -24.6218 65.3909 25
 663 1 -24.6218 66.8125 25
 664 1 -25.8529 67.5232 25
 665 1 -25.8529 68.9448 25
 666 1 -27.084 69.6555 25
 667 1 -27.084 71.0771 25
 668 1 -28.3151 71.7879 25
 669 1 -28.3151 73.2094 25
 670 1 -29.5462 73.9202 25
 671 1 -29.5462 75.3417 25
 672 1 -30.7773 76.0525 25
 673 1 -30.7773 77.474 25
 674 1 -32.0084 78.1848 25
 675 1 -32.0084 79.6063 25
 676 1 -33.2395 80.3171 25
 677 1 -33.2395 81.7386 25
 678 1 -34.4706 82.4494 25
 679 1 -34.4706 83.871 25
 680 1 -35.7016 84.5817 25
 681 1 -35.7016 86.0033 25
 682 1 -36.9327 86.714 25
 683 1 -36.9327 88.1356 25
 684 1 -38.1638 88.8464 25
 685 1 -38.1638 90.2679 25
 686 1 -39.3949 90.9787 25
 687 1 -39.3949 92.4002 25
 688 1 -40.626 93.111 25
 689 1 -40.626 94.5325 25
 690 1 -41.8571 95.2433 25
 691 1 -41.8571 96.6648 25
 692 1 -43.0882 97.3756 25
 693 1 -43.0882 98.7971 25
 694 1 -44.3193 99.5079 25
 695 1 -44.3193 100.929 25
 696 1 -45.5504 101.64 25
 697 1 -45.5504 103.062 25
 698 1 -46.7815 103.773 25
 699 1 -46.7815 105.194 25
 700 1 -48.0126 105.905 25
 701 1 -48.0126 107.326 25
 702 1 -49.2436 108.037 25
 703 1 -49.2436 109.459 25
 704 1 -50.4747 110.169 25
 705 1 -50.4747 111.591 25
 706 1 -51.7058 112.302 25
 707 1 -51.7058 113.723 25
 708 1 -52.9369 114.434 25
 709 1 -52.9369 115.856 25
 710 1 -54.168 116.566 25
 711 1 -54.168 117.988 25
 712 1 -55.3991 118.699 25
 713 1 -55.3991 120.12 25
 714 1 -56.6302 120.831 25
 715 1 -56.6302 122.253 25
 716 1 -57.8613 122.963 25
 717 1 -57.8613 124.385 25
 718 1 -59.0924 125.096 25
 719 1 -59.0924 126.517 25
 720 1 -60.3235 127.228 25
 721 1 16.0042 0.710771 25
 722 1 14.7731 1.42154 25
 723 1 14.7731 2.84308 25
 724 1 13.542 3.55385 25
 725 1 13.542 4.9754 25
 726 1 12.3109 5.68617 25
 727 1 12.3109 7.10771 25
 728 1 11.0798 7.81848 25
 729 1 11.0798 9.24002 25
 730 1 9.84873 9.95079 25
 731 1 9.84873 11.3723 25
 732 1 8.61764 12.0831 25
 733 1 8.61764 13.5046 25
 734 1 7.38655 14.2154 25
 735 1 7.38655 15.637 25
 736 1 6.15546 16.3477 25
 737 1 6.15546 17.7693 25
 738 1 4.92436 18.48 25
 739 1 4.92436 19.9016 25
 740 1 3.69327 20.6124 25
 741 1 3.69327 22.0339 25
 742 1 2.46218 22.7447 25
 743 1 2.46218 24.1662 25
 744 1 1.23109 24.877 25
 745 1 1.23109 26.2985 25
 746 1 4.9738e-14 27.0093 25
 747 1 5.68434e-14 28.4308 25
 748 1 -1.23109 29.1416 25
 749 1 -1.23109 30.5631 25
 750 1 -2.46218 31.2739 25
 751 1 -2.46218 32.6955 25
 752 1 -3.69327 33.4062 25
 753 1 -3.69327 34.8278 25
 754 1 -4.92436 35.5385 25
 755 1 -4.92436 36.9601 25
 756 1 -6.15546 37.6709 25
 757 1 -6.15546 39.0924 25
 758 1 -7.38655 39.8032 25
 759 1 -7.38655 41.2247 25
 760 1 -8.61764 41.9355 25
 761 1 -8.61764 43.357 25
 762 1 -9.84873 44.0678 25
 763 1 -9.84873 45.4893 25
 764 1 -11.0798 46.2001 25
 765 1 -11.0798 47.6216 25
 766 1 -12.3109 48.3324 25
 767 1 -12.3109 49.754 25
 768 1 -13.542 50.4647 25
 769 1 -13.542 51.8863 25
 770 1 -14.7731 52.597 25
 771 1 -14.7731 54.0186 25
 772 1 -16.0042 54.7294 25
 773 1 -16.0042 56.1509 25
 774 1 -17.2353 56.8617 25
 775 1 -17.2353 58.2832 25
 776 1 -18.4664 58.994 25
 777 1 -18.4664 60.4155 25
 778 1 -19.6975 61.1263 25
 779 1 -19.6975 62.5478 25
 780 1 -20.9286 63.2586 25
 781 1 -20.9286 64.6801 25
 782 1 -22.1596 65.3909 25
 783 1 -22.1596 66.8125 25
 784 1 -23.3907 67.5232 25
 785 1 -23.3907 68.9448 25
 786 1 -24.6218 69.6555 25
 787 1 -24.6218 71.0771 25
 788 1 -25.8529 71.7879 25
 789 1 -25.8529 73.2094 25
 790 1 -27.084 73.9202 25
 791 1 -27.084 75.3417 25
 792 1 -28.3151 76.0525 25
 793 1 -28.3151 77.474 25
 794 1 -29.5462 78.1848 25
 795 1 -29.5462 79.6063 25
 796 1 -30.7773 80.3171 25
 797 1 -30.7773 81.7386 25
 798 1 -32.0084 82.4494 25
 799 1 -32.0084 83.871 25
 800 1 -33.2395 84.5817 25
 801 1 -33.2395 86.0033 25
 802 1 -34.4706 86.714 25
 803 1 -34.4706 88.1356 25
 804 1 -35.7016 88.8464 25
 805 1 -35.9618 91.2388 25
 806 1 -36.6726 90.0077 25
 807 1 -36.9327 92.4002 25
 808 1 -38.1638 93.111 25
 809 1 -38.1638 94.5325 25
 810 1 -39.3949 95.2433 25
 811 1 -39.3949 96.6648 25
 812 1 -40.626 97.3756 25
 813 1 -40.626 98.7971 25
 814 1 -41.8571 99.5079 25
 815 1 -41.8571 100.929 25
 816 1 -43.0882 101.64 25
 817 1 -43.0882 103.062 25
 818 1 -44.3193 103.773 25
 819 1 -44.3193 105.194 25
 820 1 -45.5504 105.905 25
 821 1 -45.5504 107.326 25
 822 1 -46.7815 108.037 25
 823 1 -46.7815 109.459 25
 824 1 -48.0126 110.169 25
 825 1 -48.0126 111.591 25
 826 1 -49.2436 112.302 25
 827 1 -49.2436 113.723 25
 828 1 -50.4747 114.434 25
 829 1 -50.4747 115.856 25
 830 1 -51.7058 116.566 25
 831 1 -51.7058 117.988 25
 832 1 -52.9369 118.699 25
 833 1 -52.9369 120.12 25
 834 1 -54.168 120.831 25
 835 1 -54.168 122.253 25
 836 1 -55.3991 122.963 25
 837 1 -55.3991 124.385 25
 838 1 -56.6302 125.096 25
 839 1 -56.6302 126.517 25
 840 1 -57.8613 127.228 25
 841 1 18.4664 0.710771 25
 842 1 17.2353 1.42154 25
 843 1 17.2353 2.84308 25
 844 1 16.0042 3.55385 25
 845 1 16.0042 4.9754 25
 846 1 14.7731 5.68617 25
 847 1 14.7731 7.10771 25
 848 1 13.542 7.81848 25
 849 1 13.542 9.24002 25
 850 1 12.3109 9.95079 25
 851 1 12.3109 11.3723 25
 852 1 11.0798 12.0831 25
 853 1 11.0798 13.5046 25
 854 1 9.84873 14.2154 25
 855 1 9.84873 15.637 25
 856 1 8.61764 16.3477 25
 857 1 8.61764 17.7693 25
 858 1 7.38655 18.48 25
 859 1 7.38655 19.9016 25
 860 1 6.15546 20.6124 25
 861 1 6.15546 22.0339 25
 862 1 4.92436 22.7447 25
 863 1 4.92436 24.1662 25
 864 1 3.69327 24.877 25
 865 1 3.69327 26.2985 25
 866 1 2.46218 27.0093 25
 867 1 2.46218 28.4308 25
 868 1 1.23109 29.1416 25
 869 1 1.23109 30.5631 25
 870 1 4.9738e-14 31.2739 25
 871 1 5.68434e-14 32.6955 25
 872 1 -1.23109 33.4062 25
 873 1 -1.23109 34.8278 25
 874 1 -2.46218 35.5385 25
 875 1 -2.46218 36.9601 25
 876 1 -3.69327 37.6709 25
 877 1 -3.69327 39.0924 25
 878 1 -4.92436 39.8032 25
 879 1 -4.92436 41.2247 25
 880 1 -6.15546 41.9355 25
 881 1 -6.15546 43.357 25
 882 1 -7.38655 44.0678 25
 883 1 -7.38655 45.4893 25
 884 1 -8.61764 46.2001 25
 885 1 -8.61764 47.6216 25
 886 1 -9.84873 48.3324 25
 887 1 -9.84873 49.754 25
 888 1 -11.0798 50.4647 25
 889 1 -11.0798 51.8863 25
 890 1 -12.3109 52.597 25
 891 1 -12.3109 54.0186 25
 892 1 -13.542 54.7294 25
 893 1 -13.542 56.1509 25
 894 1 -14.7731 56.8617 25
 895 1 -14.7731 58.2832 25
 896 1 -16.0042 58.994 25
 897 1 -16.0042 60.4155 25
 898 1 -17.2353 61.1263 25
 899 1 -17.2353 62.5478 25
 900 1 -18.4664 63.2586 25
 901 1 -18.4664 64.6801 25
 902 1 -19.6975 65.3909 25
 903 1 -19.6975 66.8125 25
 904 1 -20.9286 67.5232 25
 905 1 -20.9286 68.9448 25
 906 1 -22.1596 69.6555 25
 907 1 -22.1596 71.0771 25
 908 1 -23.3907 71.7879 25
 909 1 -23.3907 73.2094 25
 910 1 -24.6218 73.9202 25
 911 1 -24.6218 75.3417 25
 912 1 -25.8529 76.0525 25
 913 1 -25.8529 77.474 25
 914 1 -27.084 78.1848 25
 915 1 -27.084 79.6063 25
 916 1 -28.3151 80.3171 25
 917 1 -28.3151 81.7386 25
 918 1 -29.5462 82.4494 25
 919 1 -29.5462 83.871 25
 920 1 -30.7773 84.5817 25
 921 1 -30.7773 86.0033 25
 922 1 -32.0084 86.714 25
 923 1 -32.0084 88.1356 25
 924 1 -33.2395 88.8464 25
 925 1 -33.2395 90.2679 25
 926 1 -34.4706 90.9787 25
 927 1 -34.4706 92.4002 25
 928 1 -35.7016 93.111 25
 929 1 -35.7016 94.5325 25
 930 1 -36.9327 95.2433 25
 931 1 -36.9327 96.6648 25
 932 1 -38.1638 97.3756 25
 933 1 -38.1638 98.7971 25
 934 1 -39.3949 99.5079 25
 935 1 -39.3949 100.929 25
 936 1 -40.626 101.64 25
 937 1 -40.626 103.062 25
 938 1 -41.8571 103.773 25
 939 1 -41.8571 105.194 25
 940 1 -43.0882 105.905 25
 941 1 -43.0882 107.326 25
 942 1 -44.3193 108.037 25
 943 1 -44.3193 109.459 25
 944 1 -45.5504 110.169 25
 945 1 -45.5504 111.591 25
 946 1 -46.7815 112.302 25
 947 1 -46.7815 113.723 25
 948 1 -48.0126 114.434 25
 949 1 -48.0126 115.856 25
 950 1 -49.2436 116.566 25
 951 1 -49.2436 117.988 25
 952 1 -50.4747 118.699 25
 953 1 -50.4747 120.12 25
 954 1 -51.7058 120.831 25
 955 1 -51.7058 122.253 25
 956 1 -52.9369 122.963 25
 957 1 -52.9369 124.385 25
 958 1 -54.168 125.096 25
 959 1 -54.168 126.517 25
 960 1 -55.3991 127.228 25
 961 1 20.9286 0.710771 25
 962 1 19.6975 1.42154 25
 963 1 19.6975 2.84308 25
 964 1 18.4664 3.55385 25
 965 1 18.4664 4.9754 25
 966 1 17.2353 5.68617 25
 967 1 17.2353 7.10771 25
 968 1 16.0042 7.81848 25
 969 1 16.0042 9.24002 25
 970 1 14.7731 9.95079 25
 971 1 14.7731 11.3723 25
 972 1 13.542 12.0831 25
 973 1 13.542 13.5046 25
 974 1 12.3109 14.2154 25
 975 1 12.3109 15.637 25
 976 1 11.0798 16.3477 25
 977 1 11.0798 17.7693 25
 978 1 9.84873 18.48 25
 979 1 9.84873 19.9016 25
 980 1 8.61764 20.6124 25
 981 1 8.61764 22.0339 25
 982 1 7.38655 22.7447 25
 983 1 7.38655 24.1662 25
 984 1 6.15546 24.877 25
 985 1 6.15546 26.2985 25
 986 1 4.92436 27.0093 25
 987 1 4.92436 28.4308 25
 988 1 3.69327 29.1416 25
 989 1 3.69327 30.5631 25
 990 1 2.46218 31.2739 25
 991 1 2.46218 32.6955 25
 992 1 1.23109 33.4062 25
 993 1 1.23109 34.8278 25
 994 1 5.68434e-14 35.5385 25
 995 1 5.68434e-14 36.9601 25
 996 1 -1.23109 37.6709 25
 997 1 -1.23109 39.0924 25
 998 1 -2.46218 39.8032 25
 999 1 -2.46218 41.2247 25
 1000 1 -3.69327 41.9355 25
 1001 1 -3.69327 43.357 25
 1002 1 -4.92436 44.0678 25
 1003 1 -4.92436 45.4893 25
 1004 1 -6.15546 46.2001 25
 1005 1 -6.15546 47.6216 25
 1006 1 -7.38655 48.3324 25
 1007 1 -7.38655 49.754 25
 1008 1 -8.61764 50.4647 25
 1009 1 -8.61764 51.8863 25
 1010 1 -9.84873 52.597 25
 1011 1 -9.84873 54.0186 25
 1012 1 -11.0798 54.7294 25
 1013 1 -11.0798 56.1509 25
 1014 1 -12.3109 56.8617 25
 1015 1 -12.3109 58.2832 25
 1016 1 -13.542 58.994 25
 1017 1 -13.542 60.4155 25
 1018 1 -14.7731 61.1263 25
 1019 1 -14.7731 62.5478 25
 1020 1 -16.0042 63.2586 25
 1021 1 -16.0042 64.6801 25
 1022 1 -17.2353 65.3909 25
 1023 1 -17.2353 66.8125 25
 1024 1 -18.4664 67.5232 25
 1025 1 -18.4664 68.9448 25
 1026 1 -19.6975 69.6555 25
 1027 1 -19.6975 71.0771 25
 1028 1 -20.9286 71.7879 25
 1029 1 -20.9286 73.2094 25
 1030 1 -22.1596 73.9202 25
 1031 1 -22.1596 75.3417 25
 1032 1 -23.3907 76.0525 25
 1033 1 -23.3907 77.474 25
 1034 1 -24.6218 78.1848 25
 1035 1 -24.6218 79.6063 25
 1036 1 -25.8529 80.3171 25
 1037 1 -25.8529 81.7386 25
 1038 1 -27.084 82.4494 25
 1039 1 -27.084 83.871 25
 1040 1 -28.3151 84.5817 25
 1041 1 -28.3151 86.0033 25
 1042 1 -29.5462 86.714 25
 1043 1 -29.5462 88.1356 25
 1044 1 -30.7773 88.8464 25
 1045 1 -30.7773 90.2679 25
 1046 1 -32.0084 90.9787 25
 1047 1 -32.0084 92.4002 25
 1048 1 -33.2395 93.111 25
 1049 1 -33.2395 94.5325 25
 1050 1 -34.4706 95.2433 25
 1051 1 -34.4706 96.6648 25
 1052 1 -35.7016 97.3756 25
 1053 1 -35.7016 98.7971 25
 1054 1 -36.9327 99.5079 25
 1055 1 -36.9327 100.929 25
 1056 1 -38.1638 101.64 25
 1057 1 -38.1638 103.062 25
 1058 1 -39.3949 103.773 25
 1059 1 -39.3949 105.194 25
 1060 1 -40.626 105.905 25
 1061 1 -40.626 107.326 25
 1062 1 -41.8571 108.037 25
 1063 1 -41.8571 109.459 25
 1064 1 -43.0882 110.169 25
 1065 1 -43.0882 111.591 25
 1066 1 -44.3193 112.302 25
 1067 1 -44.3193 113.723 25
 1068 1 -45.5504 114.434 25
 1069 1 -45.5504 115.856 25
 1070 1 -46.7815 116.566 25
 1071 1 -46.7815 117.988 25
 1072 1 -48.0126 118.699 25
 1073 1 -48.0126 120.12 25
 1074 1 -49.2436 120.831 25
 1075 1 -49.2436 122.253 25
 1076 1 -50.4747 122.963 25
 1077 1 -50.4747 124.385 25
 1078 1 -51.7058 125.096 25
 1079 1 -51.7058 126.517 25
 1080 1 -52.9369 127.228 25
 1081 1 23.3907 0.710771 25
 1082 1 22.1596 1.42154 25
 1083 1 22.1596 2.84308 25
 1084 1 20.9286 3.55385 25
 1085 1 20.9286 4.9754 25
 1086 1 19.6975 5.68617 25
 1087 1 19.6975 7.10771 25
 1088 1 18.4664 7.81848 25
 1089 1 18.4664 9.24002 25
 1090 1 17.2353 9.95079 25
 1091 1 17.2353 11.3723 25
 1092 1 16.0042 12.0831 25
 1093 1 16.0042 13.5046 25
 1094 1 14.7731 14.2154 25
 1095 1 14.7731 15.637 25
 1096 1 13.542 16.3477 25
 1097 1 13.542 17.7693 25
 1098 1 12.3109 18.48 25
 1099 1 12.3109 19.9016 25
 1100 1 11.0798 20.6124 25
 1101 1 11.0798 22.0339 25
 1102 1 9.84873 22.7447 25
 1103 1 9.84873 24.1662 25
 1104 1 8.61764 24.877 25
 1105 1 8.61764 26.2985 25
 1106 1 8.09732 27.7201 25
 1107 1 6.67578 27.7201 25
 1108 1 6.15546 29.1416 25
 1109 1 6.15546 30.5631 25
 1110 1 4.92436 31.2739 25
 1111 1 4.92436 32.6955 25
 1112 1 3.69327 33.4062 25
 1113 1 3.69327 34.8278 25
 1114 1 2.46218 35.5385 25
 1115 1 2.46218 36.9601 25
 1116 1 1.23109 37.6709 25
 1117 1 1.23109 39.0924 25