ITEM: TIMESTEP
0
ITEM: NUMBER OF ATOMS
7200
ITEM: BOX BOUNDS pp pp pp xy xz yz
-110.798 110.798 -73.8655
-0.710876 127.228 3.06162e-15
0 50 5.30288e-15
ITEM: ATOMS id type xu yu zu
 1 1 0 0 25
 2 1 -1.23109 2.13231 25
 3 1 -2.46218 4.26462 25
 4 1 -3.69327 6.39694 25
 5 1 -4.92436 8.52925 25
 6 1 -6.15546 10.6616 25
 7 1 -7.38655 12.7939 25
 8 1 -8.61764 14.9262 25
 9 1 -9.84873 17.0585 25
 10 1 -11.0798 19.1908 25
 11 1 -12.3109 21.3231 25
 12 1 -13.542 23.4554 25
 13 1 -14.7731 25.5877 25
 14 1 -16.0042 27.7201 25
 15 1 -17.2353 29.8524 25
 16 1 -18.4664 31.9847 25
 17 1 -19.6975 34.117 25
 18 1 -20.9286 36.2493 25
 19 1 -22.1596 38.3816 25
 20 1 -23.3907 40.5139 25
 21 1 -24.6218 42.6462 25
 22 1 -25.8529 44.7786 25
 23 1 -27.084 46.9109 25
 24 1 -28.3151 49.0432 25
 25 1 -29.5462 51.1755 25
 26 1 -30.7773 53.3078 25
 27 1 -32.0084 55.4401 25
 28 1 -33.2395 57.5724 25
 29 1 -34.4706 59.7047 25
 30 1 -35.7016 61.8371 25
 31 1 -36.9327 63.9694 25
 32 1 -38.1638 66.1017 25
 33 1 -39.3949 68.234 25
 34 1 -40.626 70.3663 25
 35 1 -41.8571 72.4986 25
 36 1 -43.0882 74.6309 25
 37 1 -44.3193 76.7632 25
 38 1 -45.5504 78.8956 25
 39 1 -46.7815 81.0279 25
 40 1 -48.0126 83.1602 25
 41 1 -49.2436 85.2925 25
 42 1 -50.4747 87.4248 25
 43 1 -51.7058 89.5571 25
 44 1 -52.9369 91.6894 25
 45 1 -54.168 93.8217 25
 46 1 -55.3991 95.9541 25
 47 1 -56.6302 98.0864 25
 48 1 -57.8613 100.219 25
 49 1 -59.0924 102.351 25
 50 1 -60.3235 104.483 25
 51 1 -61.5546 106.616 25
 52 1 -62.7857 108.748 25
 53 1 -64.0167 110.88 25
 54 1 -65.2478 113.013 25
 55 1 -66.4789 115.145 25
 56 1 -67.71 117.277 25
 57 1 -68.9411 119.409 25
 58 1 -70.1722 121.542 25
 59 1 -71.4033 123.674 25
 60 1 -72.6344 125.806 25
 61 1 2.46218 0 25
 62 1 1.23109 2.13231 25
 63 1 1.33227e-15 4.26462 25
 64 1 -1.23109 6.39694 25
 65 1 -2.46218 8.52925 25
 66 1 -3.69327 10.6616 25
 67 1 -4.92436 12.7939 25
 68 1 -6.15546 14.9262 25
 69 1 -7.38655 17.0585 25
 70 1 -8.61764 19.1908 25
 71 1 -9.84873 21.3231 25
 72 1 -11.0798 23.4554 25
 73 1 -12.3109 25.5877 25
 74 1 -13.542 27.7201 25
 75 1 -14.7731 29.8524 25
 76 1 -16.0042 31.9847 25
 77 1 -17.2353 34.117 25
 78 1 -18.4664 36.2493 25
 79 1 -19.6975 38.3816 25
 80 1 -20.9286 40.5139 25
 81 1 -22.1596 42.6462 25
 82 1 -23.3907 44.7786 25
 83 1 -24.6218 46.9109 25
 84 1 -25.8529 49.0432 25
 85 1 -27.084 51.1755 25
 86 1 -28.3151 53.3078 25
 87 1 -29.5462 55.4401 25
 88 1 -30.7773 57.5724 25
 89 1 -32.0084 59.7047 25
 90 1 -33.2395 61.8371 25
 91 1 -34.4706 63.9694 25
 92 1 -35.7016 66.1017 25
 93 1 -36.9327 68.234 25
 94 1 -38.1638 70.3663 25
 95 1 -39.3949 72.4986 25
 96 1 -40.626 74.6309 25
 97 1 -41.8571 76.7632 25
 98 1 -43.0882 78.8956 25
 99 1 -44.3193 81.0279 25
 100 1 -45.5504 83.1602 25
 101 1 -46.7815 85.2925 25
 102 1 -48.0126 87.4248 25
 103 1 -49.2436 89.5571 25
 104 1 -50.4747 91.6894 25
 105 1 -51.7058 93.8217 25
 106 1 -52.9369 95.9541 25
 107 1 -54.168 98.0864 25
 108 1 -55.3991 100.219 25
 109 1 -56.6302 102.351 25
 110 1 -57.8613 104.483 25
 111 1 -59.0924 106.616 25
 112 1 -60.3235 108.748 25
 113 1 -61.5546 110.88 25
 114 1 -62.7857 113.013 25
 115 1 -64.0167 115.145 25
 116 1 -65.2478 117.277 25
 117 1 -66.4789 119.409 25
 118 1 -67.71 121.542 25
 119 1 -68.9411 123.674 25
 120 1 -70.1722 125.806 25
 121 1 4.92436 0 25
 122 1 3.69327 2.13231 25
 123 1 2.46218 4.26462 25
 124 1 1.23109 6.39694 25
 125 1 2.66454e-15 8.52925 25
 126 1 -1.23109 10.6616 25
 127 1 -2.46218 12.7939 25
 128 1 -3.69327 14.9262 25
 129 1 -4.92436 17.0585 25
 130 1 -6.15546 19.1908 25
 131 1 -7.38655 21.3231 25
 132 1 -8.61764 23.4554 25
 133 1 -9.84873 25.5877 25
 134 1 -11.0798 27.7201 25
 135 1 -12.3109 29.8524 25
 136 1 -13.542 31.9847 25
 137 1 -14.7731 34.117 25
 138 1 -16.0042 36.2493 25
 139 1 -17.2353 38.3816 25
 140 1 -18.4664 40.5139 25
 141 1 -19.6975 42.6462 25
 142 1 -20.9286 44.7786 25
 143 1 -22.1596 46.9109 25
 144 1 -23.3907 49.0432 25
 145 1 -24.6218 51.1755 25
 146 1 -25.8529 53.3078 25
 147 1 -27.084 55.4401 25
 148 1 -28.3151 57.5724 25
 149 1 -29.5462 59.7047 25
 150 1 -30.7773 61.8371 25
 151 1 -32.0084 63.9694 25
 152 1 -33.2395 66.1017 25
 153 1 -34.4706 68.234 25
 154 1 -35.7016 70.3663 25
 155 1 -36.9327 72.4986 25
 156 1 -38.1638 74.6309 25
 157 1 -39.3949 76.7632 25
 158 1 -40.626 78.8956 25
 159 1 -41.8571 81.0279 25
 160 1 -43.0882 83.1602 25
 161 1 -44.3193 85.2925 25
 162 1 -45.5504 87.4248 25
 163 1 -46.7815 89.5571 25
 164 1 -48.0126 91.6894 25
 165 1 -49.2436 93.8217 25
 166 1 -50.4747 95.9541 25
 167 1 -51.7058 98.0864 25
 168 1 -52.9369 100.219 25
 169 1 -54.168 102.351 25
 170 1 -55.3991 104.483 25
 171 1 -56.6302 106.616 25
 172 1 -57.8613 108.748 25
 173 1 -59.0924 110.88 25
 174 1 -60.3235 113.013 25
 175 1 -61.5546 115.145 25
 176 1 -62.7857 117.277 25
 177 1 -64.0167 119.409 25
 178 1 -65.2478 121.542 25
 179 1 -66.4789 123.674 25
 180 1 -67.71 125.806 25
 181 1 7.38655 0 25
 182 1 6.15546 2.13231 25
 183 1 4.92436 4.26462 25
 184 1 3.69327 6.39694 25
 185 1 2.46218 8.52925 25
 186 1 1.23109 10.6616 25
 187 1 3.55271e-15 12.7939 25
 188 1 -1.23109 14.9262 25
 189 1 -2.46218 17.0585 25
 190 1 -3.69327 19.1908 25
 191 1 -4.92436 21.3231 25
 192 1 -6.15546 23.4554 25
 193 1 -7.38655 25.5877 25
 194 1 -8.61764 27.7201 25
 195 1 -9.84873 29.8524 25
 196 1 -11.0798 31.9847 25
 197 1 -12.3109 34.117 25
 198 1 -13.542 36.2493 25
 199 1 -14.7731 38.3816 25
 200 1 -16.0042 40.5139 25
 201 1 -17.2353 42.6462 25
 202 1 -18.4664 44.7786 25
 203 1 -19.6975 46.9109 25
 204 1 -20.9286 49.0432 25
 205 1 -22.1596 51.1755 25
 206 1 -23.3907 53.3078 25
 207 1 -24.6218 55.4401 25
 208 1 -25.8529 57.5724 25
 209 1 -27.084 59.7047 25
 210 1 -28.3151 61.8371 25
 211 1 -29.5462 63.9694 25
 212 1 -30.7773 66.1017 25
 213 1 -32.0084 68.234 25
 214 1 -33.2395 70.3663 25
 215 1 -34.4706 72.4986 25
 216 1 -35.7016 74.6309 25
 217 1 -36.9327 76.7632 25
 218 1 -38.1638 78.8956 25
 219 1 -39.3949 81.0279 25
 220 1 -40.626 83.1602 25
 221 1 -41.8571 85.2925 25
 222 1 -43.0882 87.4248 25
 223 1 -44.3193 89.5571 25
 224 1 -45.5504 91.6894 25
 225 1 -46.7815 93.8217 25
 226 1 -48.0126 95.9541 25
 227 1 -49.2436 98.0864 25
 228 1 -50.4747 100.219 25
 229 1 -51.7058 102.351 25
 230 1 -52.9369 104.483 25
 231 1 -54.168 106.616 25
 232 1 -55.3991 108.748 25
 233 1 -56.6302 110.88 25
 234 1 -57.8613 113.013 25
 235 1 -59.0924 115.145 25
 236 1 -60.3235 117.277 25
 237 1 -61.5546 119.409 25
 238 1 -62.7857 121.542 25
 239 1 -64.0167 123.674 25
 240 1 -65.2478 125.806 25
 241 1 9.84873 0 25
 242 1 8.61764 2.13231 25
 243 1 7.38655 4.26462 25
 244 1 6.15546 6.39694 25
 245 1 4.92436 8.52925 25
 246 1 3.69327 10.6616 25
 247 1 2.46218 12.7939 25
 248 1 1.23109 14.9262 25
 249 1 5.32907e-15 17.0585 25
 250 1 -1.23109 19.1908 25
 251 1 -2.46218 21.3231 25
 252 1 -3.69327 23.4554 25
 253 1 -4.92436 25.5877 25
 254 1 -6.15546 27.7201 25
 255 1 -7.38655 29.8524 25
 256 1 -8.61764 31.9847 25
 257 1 -9.84873 34.117 25
 258 1 -11.0798 36.2493 25
 259 1 -12.3109 38.3816 25
 260 1 -13.542 40.5139 25
 261 1 -14.7731 42.6462 25
 262 1 -16.0042 44.7786 25
 263 1 -17.2353 46.9109 25
 264 1 -18.4664 49.0432 25
 265 1 -19.6975 51.1755 25
 266 1 -20.9286 53.3078 25
 267 1 -22.1596 55.4401 25
 268 1 -23.3907 57.5724 25
 269 1 -24.6218 59.7047 25
 270 1 -25.8529 61.8371 25
 271 1 -27.084 63.9694 25
 272 1 -28.3151 66.1017 25
 273 1 -29.5462 68.234 25
 274 1 -30.7773 70.3663 25
 275 1 -32.0084 72.4986 25
 276 1 -33.2395 74.6309 25
 277 1 -34.4706 76.7632 25
 278 1 -35.7016 78.8956 25
 279 1 -36.9327 81.0279 25
 280 1 -38.1638 83.1602 25
 281 1 -39.3949 85.2925 25
 282 1 -40.626 87.4248 25
 283 1 -41.8571 89.5571 25
 284 1 -43.0882 91.6894 25
 285 1 -44.3193 93.8217 25
 286 1 -45.5504 95.9541 25
 287 1 -46.7815 98.0864 25
 288 1 -48.0126 100.219 25
 289 1 -49.2436 102.351 25
 290 1 -50.4747 104.483 25
 291 1 -51.7058 106.616 25
 292 1 -52.9369 108.748 25
 293 1 -54.168 110.88 25
 294 1 -55.3991 113.013 25
 295 1 -56.6302 115.145 25
 296 1 -57.8613 117.277 25
 297 1 -59.0924 119.409 25
 298 1 -60.3235 121.542 25
 299 1 -61.5546 123.674 25
 300 1 -62.7857 125.806 25
 301 1 12.3109 0 25
 302 1 11.0798 2.13231 25
 303 1 9.84873 4.26462 25
 304 1 8.61764 6.39694 25
 305 1 7.38655 8.52925 25
 306 1 6.15546 10.6616 25
 307 1 4.92436 12.7939 25
 308 1 3.69327 14.9262 25
 309 1 2.46218 17.0585 25
 310 1 1.23109 19.1908 25
 311 1 0 21.3231 25
 312 1 -1.23109 23.4554 25
 313 1 -2.46218 25.5877 25
 314 1 -3.69327 27.7201 25
 315 1 -4.92436 29.8524 25
 316 1 -6.15546 31.9847 25
 317 1 -7.38655 34.117 25
 318 1 -8.61764 36.2493 25
 319 1 -9.84873 38.3816 25
 320 1 -11.0798 40.5139 25
 321 1 -12.3109 42.6462 25
 322 1 -13.542 44.7786 25
 323 1 -14.7731 46.9109 25
 324 1 -16.0042 49.0432 25
 325 1 -17.2353 51.1755 25
 326 1 -18.4664 53.3078 25
 327 1 -19.6975 55.4401 25
 328 1 -20.9286 57.5724 25
 329 1 -22.1596 59.7047 25
 330 1 -23.3907 61.8371 25
 331 1 -24.6218 63.9694 25
 332 1 -25.8529 66.1017 25
 333 1 -27.084 68.234 25
 334 1 -28.3151 70.3663 25
 335 1 -29.5462 72.4986 25
 336 1 -30.7773 74.6309 25
 337 1 -32.0084 76.7632 25
 338 1 -33.2395 78.8956 25
 339 1 -34.4706 81.0279 25
 340 1 -35.7016 83.1602 25
 341 1 -36.9327 85.2925 25
 342 1 -38.1638 87.4248 25
 343 1 -39.3949 89.5571 25
 344 1 -40.626 91.6894 25
 345 1 -41.8571 93.8217 25
 346 1 -43.0882 95.9541 25
 347 1 -44.3193 98.0864 25
 348 1 -45.5504 100.219 25
 349 1 -46.7815 102.351 25
 350 1 -48.0126 104.483 25
 351 1 -49.2436 106.616 25
 352 1 -50.4747 108.748 25
 353 1 -51.7058 110.88 25
 354 1 -52.9369 113.013 25
 355 1 -54.168 115.145 25
 356 1 -55.3991 117.277 25
 357 1 -56.6302 119.409 25
 358 1 -57.8613 121.542 25
 359 1 -59.0924 123.674 25
 360 1 -60.3235 125.806 25
 361 1 14.7731 0 25
 362 1 13.542 2.13231 25
 363 1 12.3109 4.26462 25
 364 1 11.0798 6.39694 25
 365 1 9.84873 8.52925 25
 366 1 8.61764 10.6616 25
 367 1 7.38655 12.7939 25
 368 1 6.15546 14.9262 25
 369 1 4.92436 17.0585 25
 370 1 3.69327 19.1908 25
 371 1 2.46218 21.3231 25
 372 1 1.23109 23.4554 25
 373 1 7.10543e-15 25.5877 25
 374 1 -1.23109 27.7201 25
 375 1 -2.46218 29.8524 25
 376 1 -3.69327 31.9847 25
 377 1 -4.92436 34.117 25
 378 1 -6.15546 36.2493 25
 379 1 -7.38655 38.3816 25
 380 1 -8.61764 40.5139 25
 381 1 -9.84873 42.6462 25
 382 1 -11.0798 44.7786 25
 383 1 -12.3109 46.9109 25
 384 1 -13.542 49.0432 25
 385 1 -14.7731 51.1755 25
 386 1 -16.0042 53.3078 25
 387 1 -17.2353 55.4401 25
 388 1 -18.4664 57.5724 25
 389 1 -19.6975 59.7047 25
 390 1 -20.9286 61.8371 25
 391 1 -22.1596 63.9694 25
 392 1 -23.3907 66.1017 25
 393 1 -24.6218 68.234 25
 394 1 -25.8529 70.3663 25
 395 1 -27.084 72.4986 25
 396 1 -28.3151 74.6309 25
 397 1 -29.5462 76.7632 25
 398 1 -30.7773 78.8956 25
 399 1 -32.0084 81.0279 25
 400 1 -33.2395 83.1602 25
 401 1 -34.4706 85.2925 25
 402 1 -35.7016 87.4248 25
 403 1 -36.9327 89.5571 25
 404 1 -38.1638 91.6894 25
 405 1 -39.3949 93.8217 25
 406 1 -40.626 95.9541 25
 407 1 -41.8571 98.0864 25
 408 1 -43.0882 100.219 25
 409 1 -44.3193 102.351 25
 410 1 -45.5504 104.483 25
 411 1 -46.7815 106.616 25
 412 1 -48.0126 108.748 25
 413 1 -49.2436 110.88 25
 414 1 -50.4747 113.013 25
 415 1 -51.7058 115.145 25
 416 1 -52.9369 117.277 25
 417 1 -54.168 119.409 25
 418 1 -55.3991 121.542 25
 419 1 -56.6302 123.674 25
 420 1 -57.8613 125.806 25
 421 1 17.2353 0 25
 422 1 16.0042 2.13231 25
 423 1 14.7731 4.26462 25
 424 1 13.542 6.39694 25
 425 1 12.3109 8.52925 25
 426 1 11.0798 10.6616 25
 427 1 9.84873 12.7939 25
 428 1 8.61764 14.9262 25
 429 1 7.38655 17.0585 25
 430 1 6.15546 19.1908 25
 431 1 4.92436 21.3231 25
 432 1 3.69327 23.4554 25
 433 1 2.46218 25.5877 25
 434 1 1.23109 27.7201 25
 435 1 3.55271e-15 29.8524 25
 436 1 -1.23109 31.9847 25
 437 1 -2.46218 34.117 25
 438 1 -3.69327 36.2493 25
 439 1 -4.92436 38.3816 25
 440 1 -6.15546 40.5139 25
 441 1 -7.38655 42.6462 25
 442 1 -8.61764 44.7786 25
 443 1 -9.84873 46.9109 25
 444 1 -11.0798 49.0432 25
 445 1 -12.3109 51.1755 25
 446 1 -13.542 53.3078 25
 447 1 -14.7731 55.4401 25
 448 1 -16.0042 57.5724 25
 449 1 -17.2353 59.7047 25
 450 1 -18.4664 61.8371 25
 451 1 -19.6975 63.9694 25
 452 1 -20.9286 66.1017 25
 453 1 -22.1596 68.234 25
 454 1 -23.3907 70.3663 25
 455 1 -24.6218 72.4986 25
 456 1 -25.8529 74.6309 25
 457 1 -27.084 76.7632 25
 458 1 -28.3151 78.8956 25
 459 1 -29.5462 81.0279 25
 460 1 -30.7773 83.1602 25
 461 1 -32.0084 85.2925 25
 462 1 -33.2395 87.4248 25
 463 1 -34.4706 89.5571 25
 464 1 -35.7016 91.6894 25
 465 1 -36.9327 93.8217 25
 466 1 -38.1638 95.9541 25
 467 1 -39.3949 98.0864 25
 468 1 -40.626 100.219 25
 469 1 -41.8571 102.351 25
 470 1 -43.0882 104.483 25
 471 1 -44.3193 106.616 25
 472 1 -45.5504 108.748 25
 473 1 -46.7815 110.88 25
 474 1 -48.0126 113.013 25
 475 1 -49.2436 115.145 25
 476 1 -50.4747 117.277 25
 477 1 -51.7058 119.409 25
 478 1 -52.9369 121.542 25
 479 1 -54.168 123.674 25
 480 1 -55.3991 125.806 25
 481 1 19.6975 0 25
 482 1 18.4664 2.13231 25
 483 1 17.2353 4.26462 25
 484 1 16.0042 6.39694 25
 485 1 14.7731 8.52925 25
 486 1 13.542 10.6616 25
 487 1 12.3109 12.7939 25
 488 1 11.0798 14.9262 25
 489 1 9.84873 17.0585 25
 490 1 8.61764 19.1908 25
 491 1 7.38655 21.3231 25
 492 1 6.15546 23.4554 25
 493 1 4.92436 25.5877 25
 494 1 3.69327 27.7201 25
 495 1 2.46218 29.8524 25
 496 1 1.23109 31.9847 25
 497 1 1.06581e-14 34.117 25
 498 1 -1.23109 36.2493 25
 499 1 -2.46218 38.3816 25
 500 1 -3.69327 40.5139 25
 501 1 -4.92436 42.6462 25
 502 1 -6.15546 44.7786 25
 503 1 -7.38655 46.9109 25
 504 1 -8.61764 49.0432 25
 505 1 -9.84873 51.1755 25
 506 1 -11.0798 53.3078 25
 507 1 -12.3109 55.4401 25
 508 1 -13.542 57.5724 25
 509 1 -14.7731 59.7047 25
 510 1 -16.0042 61.8371 25
 511 1 -17.2353 63.9694 25
 512 1 -18.4664 66.1017 25
 513 1 -19.6975 68.234 25
 514 1 -20.9286 70.3663 25
 515 1 -22.1596 72.4986 25
 516 1 -23.3907 74.6309 25
 517 1 -24.6218 76.7632 25
 518 1 -25.8529 78.8956 25
 519 1 -27.084 81.0279 25
 520 1 -28.3151 83.1602 25
 521 1 -29.5462 85.2925 25
 522 1 -30.7773 87.4248 25
 523 1 -32.0084 89.5571 25
 524 1 -33.2395 91.6894 25
 525 1 -34.4706 93.8217 25
 526 1 -35.7016 95.9541 25
 527 1 -36.9327 98.0864 25
 528 1 -38.1638 100.219 25
 529 1 -39.3949 102.351 25
 530 1 -40.626 104.483 25
 531 1 -41.8571 106.616 25
 532 1 -43.0882 108.748 25
 533 1 -44.3193 110.88 25
 534 1 -45.5504 113.013 25
 535 1 -46.7815 115.145 25
 536 1 -48.0126 117.277 25
 537 1 -49.2436 119.409 25
 538 1 -50.4747 121.542 25
 539 1 -51.7058 123.674 25
 540 1 -52.9369 125.806 25
 541 1 22.1596 0 25
 542 1 20.9286 2.13231 25
 543 1 19.6975 4.26462 25
 544 1 18.4664 6.39694 25
 545 1 17.2353 8.52925 25
 546 1 16.0042 10.6616 25
 547 1 14.7731 12.7939 25
 548 1 13.542 14.9262 25
 549 1 12.3109 17.0585 25
 550 1 11.0798 19.1908 25
 551 1 9.84873 21.3231 25
 552 1 8.61764 23.4554 25
 553 1 7.38655 25.5877 25
 554 1 6.15546 27.7201 25
 555 1 4.92436 29.8524 25
 556 1 3.69327 31.9847 25
 557 1 2.46218 34.117 25
 558 1 1.23109 36.2493 25
 559 1 3.55271e-15 38.3816 25
 560 1 -1.23109 40.5139 25
 561 1 -2.46218 42.6462 25
 562 1 -3.69327 44.7786 25
 563 1 -4.92436 46.9109 25
 564 1 -6.15546 49.0432 25
 565 1 -7.38655 51.1755 25
 566 1 -8.61764 53.3078 25
 567 1 -9.84873 55.4401 25
 568 1 -11.0798 57.5724 25
 569 1 -12.3109 59.7047 25
 570 1 -13.542 61.8371 25
 571 1 -14.7731 63.9694 25
 572 1 -16.0042 66.1017 25
 573 1 -17.2353 68.234 25
 574 1 -18.4664 70.3663 25
 575 1 -19.6975 72.4986 25
 576 1 -20.9286 74.6309 25
 577 1 -22.1596 76.7632 25
 578 1 -23.3907 78.8956 25
 579 1 -24.6218 81.0279 25
 580 1 -25.8529 83.1602 25
 581 1 -27.084 85.2925 25
 582 1 -28.3151 87.4248 25
 583 1 -29.5462 89.5571 25
 584 1 -30.7773 91.6894 25
 585 1 -32.0084 93.8217 25
 586 1 -33.2395 95.9541 25
 587 1 -34.4706 98.0864 25
 588 1 -35.7016 100.219 25
 589 1 -36.9327 102.351 25
 590 1 -38.1638 104.483 25
 591 1 -39.3949 106.616 25
 592 1 -40.626 108.748 25
 593 1 -41.8571 110.88 25
 594 1 -43.0882 113.013 25
 595 1 -44.3193 115.145 25
 596 1 -45.5504 117.277 25
 597 1 -46.7815 119.409 25
 598 1 -48.0126 121.542 25
 599 1 -49.2436 123.674 25
 600 1 -50.4747 125.806 25
 601 1 24.6218 0 25
 602 1 23.3907 2.13231 25
 603 1 22.1596 4.26462 25
 604 1 20.9286 6.39694 25
 605 1 19.6975 8.52925 25
 606 1 18.4664 10.6616 25
 607 1 17.2353 12.7939 25
 608 1 16.0042 14.9262 25
 609 1 14.7731 17.0585 25
 610 1 13.542 19.1908 25
 611 1 12.3109 21.3231 25
 612 1 11.0798 23.4554 25
 613 1 9.84873 25.5877 25
 614 1 8.61764 27.7201 25
 615 1 7.38655 29.8524 25
 616 1 6.15546 31.9847 25
 617 1 4.92436 34.117 25
 618 1 3.69327 36.2493 25
 619 1 2.46218 38.3816 25
 620 1 1.23109 40.5139 25
 621 1 0 42.6462 25
 622 1 -1.23109 44.7786 25
 623 1 -2.46218 46.9109 25
 624 1 -3.69327 49.0432 25
 625 1 -4.92436 51.1755 25
 626 1 -6.15546 53.3078 25
 627 1 -7.38655 55.4401 25
 628 1 -8.61764 57.5724 25
 629 1 -9.84873 59.7047 25
 630 1 -11.0798 61.8371 25
 631 1 -12.3109 63.9694 25
 632 1 -13.542 66.1017 25
 633 1 -14.7731 68.234 25
 634 1 -16.0042 70.3663 25
 635 1 -17.2353 72.4986 25
 636 1 -18.4664 74.6309 25
 637 1 -19.6975 76.7632 25
 638 1 -20.9286 78.8956 25
 639 1 -22.1596 81.0279 25
 640 1 -23.3907 83.1602 25
 641 1 -24.6218 85.2925 25
 642 1 -25.8529 87.4248 25
 643 1 -27.084 89.5571 25
 644 1 -28.3151 91.6894 25
 645 1 -29.5462 93.8217 25
 646 1 -30.7773 95.9541 25
 647 1 -32.0084 98.0864 25
 648 1 -33.2395 100.219 25
 649 1 -34.4706 102.351 25
 650 1 -35.7016 104.483 25
 651 1 -36.9327 106.616 25
 652 1 -38.1638 108.748 25
 653 1 -39.3949 110.88 25
 654 1 -40.626 113.013 25
 655 1 -41.8571 115.145 25
 656 1 -43.0882 117.277 25
 657 1 -44.3193 119.409 25
 658 1 -45.5504 121.542 25
 659 1 -46.7815 123.674 25
 660 1 -48.0126 125.806 25
 661 1 27.084 0 25
 662 1 25.8529 2.13231 25
 663 1 24.6218 4.26462 25
 664 1 23.3907 6.39694 25
 665 1 22.1596 8.52925 25
 666 1 20.9286 10.6616 25
 667 1 19.6975 12.7939 25
 668 1 18.4664 14.9262 25
 669 1 17.2353 17.0585 25
 670 1 16.0042 19.1908 25
 671 1 14.7731 21.3231 25
 672 1 13.542 23.4554 25
 673 1 12.3109 25.5877 25
 674 1 11.0798 27.7201 25
 675 1 9.84873 29.8524 25
 676 1 8.61764 31.9847 25
 677 1 7.38655 34.117 25
 678 1 6.15546 36.2493 25
 679 1 4.92436 38.3816 25
 680 1 3.69327 40.5139 25
 681 1 2.46218 42.6462 25
 682 1 1.23109 44.7786 25
 683 1 0 46.9109 25
 684 1 -1.23109 49.0432 25
 685 1 -2.46218 51.1755 25
 686 1 -3.69327 53.3078 25
 687 1 -4.92436 55.4401 25
 688 1 -6.15546 57.5724 25
 689 1 -7.38655 59.7047 25
 690 1 -8.61764 61.8371 25
 691 1 -9.84873 63.9694 25
 692 1 -11.0798 66.1017 25
 693 1 -12.3109 68.234 25
 694 1 -13.542 70.3663 25
 695 1 -14.7731 72.4986 25
 696 1 -16.0042 74.6309 25
 697 1 -17.2353 76.7632 25
 698 1 -18.4664 78.8956 25
 699 1 -19.6975 81.0279 25
 700 1 -20.9286 83.1602 25
 701 1 -22.1596 85.2925 25
 702 1 -23.3907 87.4248 25
 703 1 -24.6218 89.5571 25
 704 1 -25.8529 91.6894 25
 705 1 -27.084 93.8217 25
 706 1 -28.3151 95.9541 25
 707 1 -29.5462 98.0864 25
 708 1 -30.7773 100.219 25
 709 1 -32.0084 102.351 25
 710 1 -33.2395 104.483 25
 711 1 -34.4706 106.616 25
 712 1 -35.7016 108.748 25
 713 1 -36.9327 110.88 25
 714 1 -38.1638 113.013 25
 715 1 -39.3949 115.145 25
 716 1 -40.626 117.277 25
 717 1 -41.8571 119.409 25
 718 1 -43.0882 121.542 25
 719 1 -44.3193 123.674 25
 720 1 -45.5504 125.806 25
 721 1 29.5462 0 25
 722 1 28.3151 2.13231 25
 723 1 27.084 4.26462 25
 724 1 25.8529 6.39694 25
 725 1 24.6218 8.52925 25
 726 1 23.3907 10.6616 25
 727 1 22.1596 12.7939 25
 728 1 20.9286 14.9262 25
 729 1 19.6975 17.0585 25
 730 1 18.4664 19.1908 25
 731 1 17.2353 21.3231 25
 732 1 16.0042 23.4554 25
 733 1 14.7731 25.5877 25
 734 1 13.542 27.7201 25
 735 1 12.3109 29.8524 25
 736 1 11.0798 31.9847 25
 737 1 9.84873 34.117 25
 738 1 8.61764 36.2493 25
 739 1 7.38655 38.3816 25
 740 1 6.15546 40.5139 25
 741 1 4.92436 42.6462 25
 742 1 3.69327 44.7786 25
 743 1 2.46218 46.9109 25
 744 1 1.23109 49.0432 25
 745 1 1.42109e-14 51.1755 25
 746 1 -1.23109 53.3078 25
 747 1 -2.46218 55.4401 25
 748 1 -3.69327 57.5724 25
 749 1 -4.92436 59.7047 25
 750 1 -6.15546 61.8371 25
 751 1 -7.38655 63.9694 25
 752 1 -8.61764 66.1017 25
 753 1 -9.84873 68.234 25
 754 1 -11.0798 70.3663 25
 755 1 -12.3109 72.4986 25
 756 1 -13.542 74.6309 25
 757 1 -14.7731 76.7632 25
 758 1 -16.0042 78.8956 25
 759 1 -17.2353 81.0279 25
 760 1 -18.4664 83.1602 25
 761 1 -19.6975 85.2925 25
 762 1 -20.9286 87.4248 25
 763 1 -22.1596 89.5571 25
 764 1 -23.3907 91.6894 25
 765 1 -24.6218 93.8217 25
 766 1 -25.8529 95.9541 25
 767 1 -27.084 98.0864 25
 768 1 -28.3151 100.219 25
 769 1 -29.5462 102.351 25
 770 1 -30.7773 104.483 25
 771 1 -32.0084 106.616 25
 772 1 -33.2395 108.748 25
 773 1 -34.4706 110.88 25
 774 1 -35.7016 113.013 25
 775 1 -36.9327 115.145 25
 776 1 -38.1638 117.277 25
 777 1 -39.3949 119.409 25
 778 1 -40.626 121.542 25
 779 1 -41.8571 123.674 25
 780 1 -43.0882 125.806 25
 781 1 32.0084 0 25
 782 1 30.7773 2.13231 25
 783 1 29.5462 4.26462 25
 784 1 28.3151 6.39694 25
 785 1 27.084 8.52925 25
 786 1 25.8529 10.6616 25
 787 1 24.6218 12.7939 25
 788 1 23.3907 14.9262 25
 789 1 22.1596 17.0585 25
 790 1 20.9286 19.1908 25
 791 1 19.6975 21.3231 25
 792 1 18.4664 23.4554 25
 793 1 17.2353 25.5877 25
 794 1 16.0042 27.7201 25
 795 1 14.7731 29.8524 25
 796 1 13.542 31.9847 25
 797 1 12.3109 34.117 25
 798 1 11.0798 36.2493 25
 799 1 9.84873 38.3816 25
 800 1 8.61764 40.5139 25
 801 1 7.38655 42.6462 25
 802 1 6.15546 44.7786 25
 803 1 4.92436 46.9109 25
 804 1 3.69327 49.0432 25
 805 1 2.46218 51.1755 25
 806 1 1.23109 53.3078 25
 807 1 7.10543e-15 55.4401 25
 808 1 -1.23109 57.5724 25
 809 1 -2.46218 59.7047 25
 810 1 -3.69327 61.8371 25
 811 1 -4.92436 63.9694 25
 812 1 -6.15546 66.1017 25
 813 1 -7.38655 68.234 25
 814 1 -8.61764 70.3663 25
 815 1 -9.84873 72.4986 25
 816 1 -11.0798 74.6309 25
 817 1 -12.3109 76.7632 25
 818 1 -13.542 78.8956 25
 819 1 -14.7731 81.0279 25
 820 1 -16.0042 83.1602 25
 821 1 -17.2353 85.2925 25
 822 1 -18.4664 87.4248 25
 823 1 -19.6975 89.5571 25
 824 1 -20.9286 91.6894 25
 825 1 -22.1596 93.8217 25
 826 1 -23.3907 95.9541 25
 827 1 -24.6218 98.0864 25
 828 1 -25.8529 100.219 25
 829 1 -27.084 102.351 25
 830 1 -28.3151 104.483 25
 831 1 -29.5462 106.616 25
 832 1 -30.7773 108.748 25
 833 1 -32.0084 110.88 25
 834 1 -33.2395 113.013 25
 835 1 -34.4706 115.145 25
 836 1 -35.7016 117.277 25
 837 1 -36.9327 119.409 25
 838 1 -38.1638 121.542 25
 839 1 -39.3949 123.674 25
 840 1 -40.626 125.806 25
 841 1 34.4706 0 25
 842 1 33.2395 2.13231 25
 843 1 32.0084 4.26462 25
 844 1 30.7773 6.39694 25
 845 1 29.5462 8.52925 25
 846 1 28.3151 10.6616 25
 847 1 27.084 12.7939 25
 848 1 25.8529 14.9262 25
 849 1 24.6218 17.0585 25
 850 1 23.3907 19.1908 25
 851 1 22.1596 21.3231 25
 852 1 20.9286 23.4554 25
 853 1 19.6975 25.5877 25
 854 1 18.4664 27.7201 25
 855 1 17.2353 29.8524 25
 856 1 16.0042 31.9847 25
 857 1 14.7731 34.117 25
 858 1 13.542 36.2493 25
 859 1 12.3109 38.3816 25
 860 1 11.0798 40.5139 25
 861 1 9.84873 42.6462 25
 862 1 8.61764 44.7786 25
 863 1 7.38655 46.9109 25
 864 1 6.15546 49.0432 25
 865 1 4.92436 51.1755 25
 866 1 3.69327 53.3078 25
 867 1 2.46218 55.4401 25
 868 1 1.23109 57.5724 25
 869 1 7.10543e-15 59.7047 25
 870 1 -1.23109 61.8371 25
 871 1 -2.46218 63.9694 25
 872 1 -3.69327 66.1017 25
 873 1 -4.92436 68.234 25
 874 1 -6.15546 70.3663 25
 875 1 -7.38655 72.4986 25
 876 1 -8.61764 74.6309 25
 877 1 -9.84873 76.7632 25
 878 1 -11.0798 78.8956 25
 879 1 -12.3109 81.0279 25
 880 1 -13.542 83.1602 25
 881 1 -14.7731 85.2925 25
 882 1 -16.0042 87.4248 25
 883 1 -17.2353 89.5571 25
 884 1 -18.4664 91.6894 25
 885 1 -19.6975 93.8217 25
 886 1 -20.9286 95.9541 25
 887 1 -22.1596 98.0864 25
 888 1 -23.3907 100.219 25
 889 1 -24.6218 102.351 25
 890 1 -25.8529 104.483 25
 891 1 -27.084 106.616 25
 892 1 -28.3151 108.748 25
 893 1 -29.5462 110.88 25
 894 1 -30.7773 113.013 25
 895 1 -32.0084 115.145 25
 896 1 -33.2395 117.277 25
 897 1 -34.4706 119.409 25
 898 1 -35.7016 121.542 25
 899 1 -36.9327 123.674 25
 900 1 -38.1638 125.806 25
 901 1 36.9327 0 25
 902 1 35.7016 2.13231 25
 903 1 34.4706 4.26462 25
 904 1 33.2395 6.39694 25
 905 1 32.0084 8.52925 25
 906 1 30.7773 10.6616 25
 907 1 29.5462 12.7939 25
 908 1 28.3151 14.9262 25
 909 1 27.084 17.0585 25
 910 1 25.8529 19.1908 25
 911 1 24.6218 21.3231 25
 912 1 23.3907 23.4554 25
 913 1 22.1596 25.5877 25
 914 1 20.9286 27.7201 25
 915 1 19.6975 29.8524 25
 916 1 18.4664 31.9847 25
 917 1 17.2353 34.117 25
 918 1 16.0042 36.2493 25
 919 1 14.7731 38.3816 25
 920 1 13.542 40.5139 25
 921 1 12.3109 42.6462 25
 922 1 11.0798 44.7786 25
 923 1 9.84873 46.9109 25
 924 1 8.61764 49.0432 25
 925 1 7.38655 51.1755 25
 926 1 6.15546 53.3078 25
 927 1 4.92436 55.4401 25
 928 1 3.69327 57.5724 25
 929 1 2.46218 59.7047 25
 930 1 1.23109 61.8371 25
 931 1 0 63.9694 25
 932 1 -1.23109 66.1017 25
 933 1 -2.46218 68.234 25
 934 1 -3.69327 70.3663 25
 935 1 -4.92436 72.4986 25
 936 1 -6.15546 74.6309 25
 937 1 -7.38655 76.7632 25
 938 1 -8.61764 78.8956 25
 939 1 -9.84873 81.0279 25
 940 1 -11.0798 83.1602 25
 941 1 -12.3109 85.2925 25
 942 1 -13.542 87.4248 25
 943 1 -14.7731 89.5571 25
 944 1 -16.0042 91.6894 25
 945 1 -17.2353 93.8217 25
 946 1 -18.4664 95.9541 25
 947 1 -19.6975 98.0864 25
 948 1 -20.9286 100.219 25
 949 1 -22.1596 102.351 25
 950 1 -23.3907 104.483 25
 951 1 -24.6218 106.616 25
 952 1 -25.8529 108.748 25
 953 1 -27.084 110.88 25
 954 1 -28.3151 113.013 25
 955 1 -29.5462 115.145 25
 956 1 -30.7773 117.277 25
 957 1 -32.0084 119.409 25
 958 1 -33.2395 121.542 25
 959 1 -34.4706 123.674 25
 960 1 -35.7016 125.806 25
 961 1 39.3949 0 25
 962 1 38.1638 2.13231 25
 963 1 36.9327 4.26462 25
 964 1 35.7016 6.39694 25
 965 1 34.4706 8.52925 25
 966 1 33.2395 10.6616 25
 967 1 32.0084 12.7939 25
 968 1 30.7773 14.9262 25
 969 1 29.5462 17.0585 25
 970 1 28.3151 19.1908 25
 971 1 27.084 21.3231 25
 972 1 25.8529 23.4554 25
 973 1 24.6218 25.5877 25
 974 1 23.3907 27.7201 25
 975 1 22.1596 29.8524 25
 976 1 20.9286 31.9847 25
 977 1 19.6975 34.117 25
 978 1 18.4664 36.2493 25
 979 1 17.2353 38.3816 25
 980 1 16.0042 40.5139 25
 981 1 14.7731 42.6462 25
 982 1 13.542 44.7786 25
 983 1 12.3109 46.9109 25
 984 1 11.0798 49.0432 25
 985 1 9.84873 51.1755 25
 986 1 8.61764 53.3078 25
 987 1 7.38655 55.4401 25
 988 1 6.15546 57.5724 25
 989 1 4.92436 59.7047 25
 990 1 3.69327 61.8371 25
 991 1 2.46218 63.9694 25
 992 1 1.23109 66.1017 25
 993 1 2.13163e-14 68.234 25
 994 1 -1.23109 70.3663 25
 995 1 -2.46218 72.4986 25
 996 1 -3.69327 74.6309 25
 997 1 -4.92436 76.7632 25
 998 1 -6.15546 78.8956 25
 999 1 -7.38655 81.0279 25
 1000 1 -8.61764 83.1602 25
 1001 1 -9.84873 85.2925 25
 1002 1 -11.0798 87.4248 25
 1003 1 -12.3109 89.5571 25
 1004 1 -13.542 91.6894 25
 1005 1 -14.7731 93.8217 25
 1006 1 -16.0042 95.9541 25
 1007 1 -17.2353 98.0864 25
 1008 1 -18.4664 100.219 25
 1009 1 -19.6975 102.351 25
 1010 1 -20.9286 104.483 25
 1011 1 -22.1596 106.616 25
 1012 1 -23.3907 108.748 25
 1013 1 -24.6218 110.88 25
 1014 1 -25.8529 113.013 25
 1015 1 -27.084 115.145 25
 1016 1 -28.3151 117.277 25
 1017 1 -29.5462 119.409 25
 1018 1 -30.7773 121.542 25
 1019 1 -32.0084 123.674 25
 1020 1 -33.2395 125.806 25
 1021 1 41.8571 0 25
 1022 1 40.626 2.13231 25
 1023 1 39.3949 4.26462 25
 1024 1 38.1638 6.39694 25
 1025 1 36.9327 8.52925 25
 1026 1 35.7016 10.6616 25
 1027 1 34.4706 12.7939 25
 1028 1 33.2395 14.9262 25
 1029 1 32.0084 17.0585 25
 1030 1 30.7773 19.1908 25
 1031 1 29.5462 21.3231 25
 1032 1 28.3151 23.4554 25
 1033 1 27.084 25.5877 25
 1034 1 25.8529 27.7201 25
 1035 1 24.6218 29.8524 25
 1036 1 23.3907 31.9847 25
 1037 1 22.1596 34.117 25
 1038 1 20.9286 36.2493 25
 1039 1 19.6975 38.3816 25
 1040 1 18.4664 40.5139 25
 1041 1 17.2353 42.6462 25
 1042 1 16.0042 44.7786 25
 1043 1 14.7731 46.9109 25
 1044 1 13.542 49.0432 25
 1045 1 12.3109 51.1755 25
 1046 1 11.0798 53.3078 25
 1047 1 9.84873 55.4401 25
 1048 1 8.61764 57.5724 25
 1049 1 7.38655 59.7047 25
 1050 1 6.15546 61.8371 25
 1051 1 4.92436 63.9694 25
 1052 1 3.69327 66.1017 25
 1053 1 2.46218 68.234 25
 1054 1 1.23109 70.3663 25
 1055 1 1.42109e-14 72.4986 25
 1056 1 -1.23109 74.6309 25
 1057 1 -2.46218 76.7632 25
 1058 1 -3.69327 78.8956 25
 1059 1 -4.92436 81.0279 25
 1060 1 -6.15546 83.1602 25
 1061 1 -7.38655 85.2925 25
 1062 1 -8.61764 87.4248 25
 1063 1 -9.84873 89.5571 25
 1064 1 -11.0798 91.6894 25
 1065 1 -12.3109 93.8217 25
 1066 1 -13.542 95.9541 25
 1067 1 -14.7731 98.0864 25
 1068 1 -16.0042 100.219 25
 1069 1 -17.2353 102.351 25
 1070 1 -18.4664 104.483 25
 1071 1 -19.6975 106.616 25
 1072 1 -20.9286 108.748 25
 1073 1 -22.1596 110.88 25
 1074 1 -23.3907 113.013 25
 1075 1 -24.6218 115.145 25
 1076 1 -25.8529 117.277 25
 1077 1 -27.084 119.409 25
 1078 1 -28.3151 121.542 25
 1079 1 -29.5462 123.674 25
 1080 1 -30.7773 125.806 25
 1081 1 44.3193 0 25
 1082 1 43.0882 2.13231 25
 1083 1 41.8571 4.26462 25
 1084 1 40.626 6.39694 25
 1085 1 39.3949 8.52925 25
 1086 1 38.1638 10.6616 25
 1087 1 36.9327 12.7939 25
 1088 1 35.7016 14.9262 25
 1089 1 34.4706 17.0585 25
 1090 1 33.2395 19.1908 25
 1091 1 32.0084 21.3231 25
 1092 1 30.7773 23.4554 25
 1093 1 29.5462 25.5877 25
 1094 1 28.3151 27.7201 25
 1095 1 27.084 29.8524 25
 1096 1 25.8529 31.9847 25
 1097 1 24.6218 34.117 25
 1098 1 23.3907 36.2493 25
 1099 1 22.1596 38.3816 25
 1100 1 20.9286 40.5139 25
 1101 1 19.6975 42.6462 25
 1102 1 18.4664 44.7786 25
 1103 1 17.2353 46.9109 25
 1104 1 16.0042 49.0432 25
 1105 1 14.7731 51.1755 25
 1106 1 13.542 53.3078 25
 1107 1 12.3109 55.4401 25
 1108 1 11.0798 57.5724 25
 1109 1 9.84873 59.7047 25
 1110 1 8.61764 61.8371 25
 1111 1 7.38655 63.9694 25
 1112 1 6.15546 66.1017 25
 1113 1 4.92436 68.234 25
 1114 1 3.69327 70.3663 25
 1115 1 2.46218 72.4986 25
 1116 1 1.23109 74.6309 25
 1117 1 7.10543e-15 76.7632 25
 1118 1 -1.23109 78.8956 25
 1119 1 -2.46218 81.0279 25
 1120 1 -3.69327 83.1602 25
 1121 1 -4.92436 85.2925 25
 1122 1 -6.15546 87.4248 25
 1123 1 -7.38655 89.5571 25
 1124 1 -8.61764 91.6894 25
 1125 1 -9.84873 93.8217 25